
    -----------------------------------------------------------------------
          Psi4: An Open-Source Ab Initio Electronic Structure Package
                               Psi4 1.4 release

                         Git: Rev {HEAD} 9485035 


    D. G. A. Smith, L. A. Burns, A. C. Simmonett, R. M. Parrish,
    M. C. Schieber, R. Galvelis, P. Kraus, H. Kruse, R. Di Remigio,
    A. Alenaizan, A. M. James, S. Lehtola, J. P. Misiewicz, M. Scheurer,
    R. A. Shaw, J. B. Schriber, Y. Xie, Z. L. Glick, D. A. Sirianni,
    J. S. O'Brien, J. M. Waldrop, A. Kumar, E. G. Hohenstein,
    B. P. Pritchard, B. R. Brooks, H. F. Schaefer III, A. Yu. Sokolov,
    K. Patkowski, A. E. DePrince III, U. Bozkaya, R. A. King,
    F. A. Evangelista, J. M. Turney, T. D. Crawford, C. D. Sherrill,
    J. Chem. Phys. 152(18) 184108 (2020). https://doi.org/10.1063/5.0006002

                            Additional Code Authors
    E. T. Seidl, C. L. Janssen, E. F. Valeev, M. L. Leininger,
    J. F. Gonthier, R. M. Richard, H. R. McAlexander, M. Saitow, X. Wang,
    P. Verma, and M. H. Lechner

             Previous Authors, Complete List of Code Contributors,
                       and Citations for Specific Modules
    https://github.com/psi4/psi4/blob/master/codemeta.json
    https://github.com/psi4/psi4/graphs/contributors
    http://psicode.org/psi4manual/master/introduction.html#citing-psifour

    -----------------------------------------------------------------------


    Psi4 started on: Thursday, 30 December 2021 07:50PM

    Process ID: 1420170
    Host:       skystd01.palmetto.clemson.edu
    PSIDATADIR: /home/maxbuskirk/.conda/envs/psifour/share/psi4
    Memory:     500.0 MiB
    Threads:    1
    
  ==> Input File <==

--------------------------------------------------------------------------
memory 32 GB

molecule mol {
1 1
	    C     1.5664004643  -0.4568570874  -2.1364966024
	    C     0.5532147560   0.5763237859  -0.0481608803
	    C     0.7026123884   2.0241860516   0.2725072817
	    C     2.2275181453   2.1790682995   0.4538341003
	    C     2.7717458992   1.2944711342  -0.6729776601
	    C     1.8104665446   0.0833578751  -0.7092745540
	    H     2.2083642595  -0.7361778109  -0.0770479952
	    H     3.8180738824   0.9892351802  -0.5307550722
	    H     2.7078340252   1.8337641993  -1.6340016054
	    H     2.5242208432   1.7892762622   1.4418837333
	    H     2.5470182319   3.2284797822   0.3898299153
	    H     0.0745941425   2.3837041250   1.0981409597
	    H     0.4055629036   2.5706915301  -0.6504917965
	    C    -0.5793948178  -0.2183375491   0.2473418683
	    C    -0.5182226301  -1.6456849943   0.1412771940
	    C    -1.6440597591  -2.4118594680   0.4319548861
	    C    -2.8492644696  -1.7794061807   0.8054993615
	    C    -2.9285045922  -0.3753325623   0.9121625280
	    C    -1.8020448757   0.4040259034   0.6588220330
	    H    -1.8629454972   1.4920986500   0.7349170779
	    H    -3.8691471456   0.0981439531   1.2038778916
	    H    -3.7329421632  -2.3875837345   1.0234578238
	    H    -1.5955576323  -3.5019939581   0.3736733784
	    H     0.4219423786  -2.1354228587  -0.1221949151
	    H     0.9389584655  -1.3588049971  -2.1496507219
	    H     2.5398277521  -0.6988428534  -2.5898440410
	    H     1.0843462196   0.3155920126  -2.7564547043
}	


set scf_type df
set basis cc-pVDZ
set reference rhf


mol.update_geometry()
mol.symmetrize(1e-3)

e, wfn = frequencies('mp2', return_wfn=True)
oeprop(wfn, "MULLIKEN_CHARGES")
mol.print_out()
print_variables()
--------------------------------------------------------------------------

  Memory set to  29.802 GiB by Python driver.

Scratch directory: /tmp/
gradient() will perform analytic gradient computation.

*** tstart() called on skystd01.palmetto.clemson.edu
*** at Thu Dec 30 19:50:31 2021

   => Loading Basis Set <=

    Name: CC-PVDZ
    Role: ORBITAL
    Keyword: BASIS
    atoms 1-6, 14-19  entry C          line   138 file /home/maxbuskirk/.conda/envs/psifour/share/psi4/basis/cc-pvdz.gbs 
    atoms 7-13, 20-27 entry H          line    22 file /home/maxbuskirk/.conda/envs/psifour/share/psi4/basis/cc-pvdz.gbs 


         ---------------------------------------------------------
                                   SCF
               by Justin Turney, Rob Parrish, Andy Simmonett
                          and Daniel G. A. Smith
                              RHF Reference
                        1 Threads,  30517 MiB Core
         ---------------------------------------------------------

  ==> Geometry <==

    Molecular point group: c1
    Full point group: C1

    Geometry (in Angstrom), charge = 1, multiplicity = 1:

       Center              X                  Y                   Z               Mass       
    ------------   -----------------  -----------------  -----------------  -----------------
         C            1.566400464306    -0.456857087399    -2.136496602398    12.000000000000
         C            0.553214756006     0.576323785901    -0.048160880298    12.000000000000
         C            0.702612388406     2.024186051601     0.272507281702    12.000000000000
         C            2.227518145306     2.179068299501     0.453834100302    12.000000000000
         C            2.771745899206     1.294471134201    -0.672977660098    12.000000000000
         C            1.810466544606     0.083357875101    -0.709274553998    12.000000000000
         H            2.208364259506    -0.736177810899    -0.077047995198     1.007825032230
         H            3.818073882406     0.989235180201    -0.530755072198     1.007825032230
         H            2.707834025206     1.833764199301    -1.634001605398     1.007825032230
         H            2.524220843206     1.789276262201     1.441883733302     1.007825032230
         H            2.547018231906     3.228479782201     0.389829915302     1.007825032230
         H            0.074594142506     2.383704125001     1.098140959702     1.007825032230
         H            0.405562903606     2.570691530101    -0.650491796498     1.007825032230
         C           -0.579394817794    -0.218337549099     0.247341868302    12.000000000000
         C           -0.518222630094    -1.645684994299     0.141277194002    12.000000000000
         C           -1.644059759094    -2.411859467999     0.431954886102    12.000000000000
         C           -2.849264469594    -1.779406180699     0.805499361502    12.000000000000
         C           -2.928504592194    -0.375332562299     0.912162528002    12.000000000000
         C           -1.802044875694     0.404025903401     0.658822033002    12.000000000000
         H           -1.862945497194     1.492098650001     0.734917077902     1.007825032230
         H           -3.869147145594     0.098143953101     1.203877891602     1.007825032230
         H           -3.732942163194    -2.387583734499     1.023457823802     1.007825032230
         H           -1.595557632294    -3.501993958099     0.373673378402     1.007825032230
         H            0.421942378606    -2.135422858699    -0.122194915098     1.007825032230
         H            0.938958465506    -1.358804997099    -2.149650721898     1.007825032230
         H            2.539827752106    -0.698842853399    -2.589844040998     1.007825032230
         H            1.084346219606     0.315592012601    -2.756454704298     1.007825032230

  Running in c1 symmetry.

  Rotational constants: A =      0.06590  B =      0.02012  C =      0.01662 [cm^-1]
  Rotational constants: A =   1975.77712  B =    603.23496  C =    498.22934 [MHz]
  Nuclear repulsion =  668.694949300837720

  Charge       = 1
  Multiplicity = 1
  Electrons    = 86
  Nalpha       = 43
  Nbeta        = 43

  ==> Algorithm <==

  SCF Algorithm Type is DF.
  DIIS enabled.
  MOM disabled.
  Fractional occupation disabled.
  Guess Type is SAD.
  Energy threshold   = 1.00e-10
  Density threshold  = 1.00e-10
  Integral threshold = 1.00e-12

  ==> Primary Basis <==

  Basis Set: CC-PVDZ
    Blend: CC-PVDZ
    Number of shells: 117
    Number of basis functions: 243
    Number of Cartesian functions: 255
    Spherical Harmonics?: true
    Max angular momentum: 2

   => Loading Basis Set <=

    Name: (CC-PVDZ AUX)
    Role: JKFIT
    Keyword: DF_BASIS_SCF
    atoms 1-6, 14-19  entry C          line   121 file /home/maxbuskirk/.conda/envs/psifour/share/psi4/basis/cc-pvdz-jkfit.gbs 
    atoms 7-13, 20-27 entry H          line    51 file /home/maxbuskirk/.conda/envs/psifour/share/psi4/basis/cc-pvdz-jkfit.gbs 

  ==> Integral Setup <==

  DFHelper Memory: AOs need 0.495 GiB; user supplied 22.352 GiB. Using in-core AOs.

  ==> MemDFJK: Density-Fitted J/K Matrices <==

    J tasked:                   Yes
    K tasked:                   Yes
    wK tasked:                   No
    OpenMP threads:               1
    Memory [MiB]:             22888
    Algorithm:                 Core
    Schwarz Cutoff:           1E-12
    Mask sparsity (%):       8.9620
    Fitting Condition:        1E-10

   => Auxiliary Basis Set <=

  Basis Set: (CC-PVDZ AUX)
    Blend: CC-PVDZ-JKFIT
    Number of shells: 423
    Number of basis functions: 1185
    Number of Cartesian functions: 1347
    Spherical Harmonics?: true
    Max angular momentum: 3

  Minimum eigenvalue in the overlap matrix is 3.3987678447E-04.
  Reciprocal condition number of the overlap matrix is 5.0262877984E-05.
    Using symmetric orthogonalization.

  ==> Pre-Iterations <==

  SCF Guess: Superposition of Atomic Densities via on-the-fly atomic UHF (no occupation information).

   -------------------------
    Irrep   Nso     Nmo    
   -------------------------
     A        243     243 
   -------------------------
    Total     243     243
   -------------------------

  ==> Iterations <==

                           Total Energy        Delta E     RMS |[F,P]|

   @DF-RHF iter SAD:  -462.59635115048582   -4.62596e+02   0.00000e+00 
   @DF-RHF iter   1:  -462.72638155712497   -1.30030e-01   2.23099e-03 DIIS
   @DF-RHF iter   2:  -462.91950812495236   -1.93127e-01   9.22842e-04 DIIS
   @DF-RHF iter   3:  -462.94815310037757   -2.86450e-02   3.20780e-04 DIIS
   @DF-RHF iter   4:  -462.95289018951553   -4.73709e-03   1.12687e-04 DIIS
   @DF-RHF iter   5:  -462.95344888004115   -5.58691e-04   2.96919e-05 DIIS
   @DF-RHF iter   6:  -462.95354689771824   -9.80177e-05   1.28174e-05 DIIS
   @DF-RHF iter   7:  -462.95356990797757   -2.30103e-05   6.70522e-06 DIIS
   @DF-RHF iter   8:  -462.95357722305630   -7.31508e-06   2.60836e-06 DIIS
   @DF-RHF iter   9:  -462.95357855887721   -1.33582e-06   1.11724e-06 DIIS
   @DF-RHF iter  10:  -462.95357871043285   -1.51556e-07   3.32742e-07 DIIS
   @DF-RHF iter  11:  -462.95357872314565   -1.27128e-08   1.07403e-07 DIIS
   @DF-RHF iter  12:  -462.95357872401553   -8.69875e-10   3.39221e-08 DIIS
   @DF-RHF iter  13:  -462.95357872415036   -1.34833e-10   1.53567e-08 DIIS
   @DF-RHF iter  14:  -462.95357872417355   -2.31921e-11   4.59473e-09 DIIS
   @DF-RHF iter  15:  -462.95357872417674   -3.18323e-12   1.55752e-09 DIIS
   @DF-RHF iter  16:  -462.95357872417412    2.61480e-12   6.83781e-10 DIIS
   @DF-RHF iter  17:  -462.95357872417736   -3.24007e-12   3.33539e-10 DIIS
   @DF-RHF iter  18:  -462.95357872417685    5.11591e-13   1.44345e-10 DIIS
   @DF-RHF iter  19:  -462.95357872417640    4.54747e-13   7.25581e-11 DIIS
  Energy and wave function converged.


  ==> Post-Iterations <==

    Orbital Energies [Eh]
    ---------------------

    Doubly Occupied:                                                      

       1A    -11.498360     2A    -11.434382     3A    -11.433839  
       4A    -11.432139     5A    -11.421264     6A    -11.406039  
       7A    -11.405582     8A    -11.401596     9A    -11.401151  
      10A    -11.378794    11A    -11.376480    12A    -11.372913  
      13A     -1.347133    14A     -1.302490    15A     -1.210033  
      16A     -1.191249    17A     -1.173221    18A     -1.112829  
      19A     -1.054712    20A     -1.001154    21A     -0.996363  
      22A     -0.941364    23A     -0.900005    24A     -0.866679  
      25A     -0.826566    26A     -0.810051    27A     -0.784600  
      28A     -0.772831    29A     -0.760404    30A     -0.738469  
      31A     -0.720625    32A     -0.703886    33A     -0.696340  
      34A     -0.681198    35A     -0.667940    36A     -0.659331  
      37A     -0.648909    38A     -0.634246    39A     -0.628279  
      40A     -0.615520    41A     -0.610219    42A     -0.515839  
      43A     -0.500916  

    Virtual:                                                              

      44A     -0.150921    45A     -0.025170    46A      0.008158  
      47A      0.032532    48A      0.055056    49A      0.061754  
      50A      0.071577    51A      0.089480    52A      0.098620  
      53A      0.117733    54A      0.120073    55A      0.126546  
      56A      0.136446    57A      0.143389    58A      0.153109  
      59A      0.163784    60A      0.168451    61A      0.183529  
      62A      0.190506    63A      0.194845    64A      0.219454  
      65A      0.232362    66A      0.258346    67A      0.262092  
      68A      0.286786    69A      0.291840    70A      0.306543  
      71A      0.331649    72A      0.351584    73A      0.359855  
      74A      0.435665    75A      0.437928    76A      0.451083  
      77A      0.460174    78A      0.480009    79A      0.494485  
      80A      0.519187    81A      0.521971    82A      0.539794  
      83A      0.546583    84A      0.560498    85A      0.563547  
      86A      0.570650    87A      0.574104    88A      0.583745  
      89A      0.588603    90A      0.591421    91A      0.610349  
      92A      0.627751    93A      0.651515    94A      0.672165  
      95A      0.682471    96A      0.688214    97A      0.694849  
      98A      0.702994    99A      0.717355   100A      0.720270  
     101A      0.723682   102A      0.731915   103A      0.737507  
     104A      0.743602   105A      0.748175   106A      0.755565  
     107A      0.762104   108A      0.772721   109A      0.773809  
     110A      0.782458   111A      0.786972   112A      0.788670  
     113A      0.803479   114A      0.810181   115A      0.818232  
     116A      0.832095   117A      0.853594   118A      0.874555  
     119A      0.882374   120A      0.912427   121A      0.955603  
     122A      0.961721   123A      0.977203   124A      0.989535  
     125A      1.001356   126A      1.010983   127A      1.025018  
     128A      1.039623   129A      1.051714   130A      1.068660  
     131A      1.109036   132A      1.129481   133A      1.131751  
     134A      1.139147   135A      1.143852   136A      1.184227  
     137A      1.220459   138A      1.222549   139A      1.264633  
     140A      1.286531   141A      1.310849   142A      1.327143  
     143A      1.340440   144A      1.377370   145A      1.394957  
     146A      1.406624   147A      1.412600   148A      1.434633  
     149A      1.480158   150A      1.530428   151A      1.546628  
     152A      1.561120   153A      1.575796   154A      1.582639  
     155A      1.587731   156A      1.601588   157A      1.608664  
     158A      1.630195   159A      1.643961   160A      1.672122  
     161A      1.686108   162A      1.696642   163A      1.699260  
     164A      1.703706   165A      1.711625   166A      1.716377  
     167A      1.734100   168A      1.743657   169A      1.754622  
     170A      1.763189   171A      1.778768   172A      1.783001  
     173A      1.789009   174A      1.796706   175A      1.808323  
     176A      1.822498   177A      1.826318   178A      1.828984  
     179A      1.844473   180A      1.853272   181A      1.867391  
     182A      1.885424   183A      1.894583   184A      1.903196  
     185A      1.908107   186A      1.922512   187A      1.932377  
     188A      1.949190   189A      1.962091   190A      1.978219  
     191A      1.984039   192A      1.989892   193A      1.997052  
     194A      2.017351   195A      2.045927   196A      2.055918  
     197A      2.061689   198A      2.072856   199A      2.088463  
     200A      2.090573   201A      2.097935   202A      2.125786  
     203A      2.137582   204A      2.160591   205A      2.191652  
     206A      2.209024   207A      2.220440   208A      2.230648  
     209A      2.275933   210A      2.284882   211A      2.299718  
     212A      2.323435   213A      2.328919   214A      2.351923  
     215A      2.357586   216A      2.386609   217A      2.409823  
     218A      2.439999   219A      2.465812   220A      2.502553  
     221A      2.531062   222A      2.553377   223A      2.567455  
     224A      2.590283   225A      2.604802   226A      2.611977  
     227A      2.622380   228A      2.626853   229A      2.690232  
     230A      2.701976   231A      2.737404   232A      2.764538  
     233A      2.782835   234A      2.793857   235A      2.838006  
     236A      2.845128   237A      2.879427   238A      2.899164  
     239A      2.912471   240A      3.007268   241A      3.010232  
     242A      3.130011   243A      3.745754  

    Final Occupation by Irrep:
              A 
    DOCC [    43 ]

  @DF-RHF Final Energy:  -462.95357872417640

   => Energetics <=

    Nuclear Repulsion Energy =            668.6949493008377203
    One-Electron Energy =               -1937.2251771697929144
    Two-Electron Energy =                 805.5766491447786848
    Total Energy =                       -462.9535787241763956

Computation Completed


Properties will be evaluated at   0.000000,   0.000000,   0.000000 [a0]

Properties computed using the SCF density matrix

  Nuclear Dipole Moment: [e a0]
     X:     7.6968      Y:     3.6394      Z:    -3.9792

  Electronic Dipole Moment: [e a0]
     X:    -7.9722      Y:    -3.6291      Z:     4.1074

  Dipole Moment: [e a0]
     X:    -0.2754      Y:     0.0103      Z:     0.1282     Total:     0.3039

  Dipole Moment: [D]
     X:    -0.7000      Y:     0.0262      Z:     0.3257     Total:     0.7726


*** tstop() called on skystd01.palmetto.clemson.edu at Thu Dec 30 19:50:46 2021
Module time:
	user time   =      14.97 seconds =       0.25 minutes
	system time =       0.72 seconds =       0.01 minutes
	total time  =         15 seconds =       0.25 minutes
Total time:
	user time   =      14.97 seconds =       0.25 minutes
	system time =       0.72 seconds =       0.01 minutes
	total time  =         15 seconds =       0.25 minutes

*** tstart() called on skystd01.palmetto.clemson.edu
*** at Thu Dec 30 19:50:46 2021


  //>>>>>>>>>>>>>>>>>>>>>>>>>>>>>>>>>>>//
  //               DFMP2               //
  //<<<<<<<<<<<<<<<<<<<<<<<<<<<<<<<<<<<//

   => Loading Basis Set <=

    Name: (CC-PVDZ AUX)
    Role: RIFIT
    Keyword: DF_BASIS_MP2
    atoms 1-6, 14-19  entry C          line   159 file /home/maxbuskirk/.conda/envs/psifour/share/psi4/basis/cc-pvdz-ri.gbs 
    atoms 7-13, 20-27 entry H          line    19 file /home/maxbuskirk/.conda/envs/psifour/share/psi4/basis/cc-pvdz-ri.gbs 

	 --------------------------------------------------------
	                          DF-MP2                         
	      2nd-Order Density-Fitted Moller-Plesset Theory     
	              RMP2 Wavefunction,   1 Threads             
	                                                         
	        Rob Parrish, Justin Turney, Andy Simmonett,      
	           Ed Hohenstein, and C. David Sherrill          
	 --------------------------------------------------------

   => Auxiliary Basis Set <=

  Basis Set: (CC-PVDZ AUX)
    Blend: CC-PVDZ-RI
    Number of shells: 306
    Number of basis functions: 882
    Number of Cartesian functions: 1017
    Spherical Harmonics?: true
    Max angular momentum: 3

	 --------------------------------------------------------
	                 NBF =   243, NAUX =   882
	 --------------------------------------------------------
	   CLASS    FOCC     OCC    AOCC    AVIR     VIR    FVIR
	   PAIRS       0      43      43     200     200       0
	 --------------------------------------------------------

  DFHelper Memory: AOs need 0.495 GiB; user supplied 22.352 GiB. Using in-core AOs.


         ------------------------------------------------------------
                                     CPHF                           
                                  Rob Parrish                       
         ------------------------------------------------------------

  ==> Geometry <==

    Molecular point group: c1
    Full point group: C1

    Geometry (in Angstrom), charge = 1, multiplicity = 1:

       Center              X                  Y                   Z               Mass       
    ------------   -----------------  -----------------  -----------------  -----------------
         C            1.566400464306    -0.456857087399    -2.136496602398    12.000000000000
         C            0.553214756006     0.576323785901    -0.048160880298    12.000000000000
         C            0.702612388406     2.024186051601     0.272507281702    12.000000000000
         C            2.227518145306     2.179068299501     0.453834100302    12.000000000000
         C            2.771745899206     1.294471134201    -0.672977660098    12.000000000000
         C            1.810466544606     0.083357875101    -0.709274553998    12.000000000000
         H            2.208364259506    -0.736177810899    -0.077047995198     1.007825032230
         H            3.818073882406     0.989235180201    -0.530755072198     1.007825032230
         H            2.707834025206     1.833764199301    -1.634001605398     1.007825032230
         H            2.524220843206     1.789276262201     1.441883733302     1.007825032230
         H            2.547018231906     3.228479782201     0.389829915302     1.007825032230
         H            0.074594142506     2.383704125001     1.098140959702     1.007825032230
         H            0.405562903606     2.570691530101    -0.650491796498     1.007825032230
         C           -0.579394817794    -0.218337549099     0.247341868302    12.000000000000
         C           -0.518222630094    -1.645684994299     0.141277194002    12.000000000000
         C           -1.644059759094    -2.411859467999     0.431954886102    12.000000000000
         C           -2.849264469594    -1.779406180699     0.805499361502    12.000000000000
         C           -2.928504592194    -0.375332562299     0.912162528002    12.000000000000
         C           -1.802044875694     0.404025903401     0.658822033002    12.000000000000
         H           -1.862945497194     1.492098650001     0.734917077902     1.007825032230
         H           -3.869147145594     0.098143953101     1.203877891602     1.007825032230
         H           -3.732942163194    -2.387583734499     1.023457823802     1.007825032230
         H           -1.595557632294    -3.501993958099     0.373673378402     1.007825032230
         H            0.421942378606    -2.135422858699    -0.122194915098     1.007825032230
         H            0.938958465506    -1.358804997099    -2.149650721898     1.007825032230
         H            2.539827752106    -0.698842853399    -2.589844040998     1.007825032230
         H            1.084346219606     0.315592012601    -2.756454704298     1.007825032230

  Nuclear repulsion =  668.694949300837720
  Reference energy  = -462.953578724176396

  ==> Basis Set <==

  Basis Set: CC-PVDZ
    Blend: CC-PVDZ
    Number of shells: 117
    Number of basis functions: 243
    Number of Cartesian functions: 255
    Spherical Harmonics?: true
    Max angular momentum: 2

  ==> CGRSolver (by Rob Parrish) <==

   Number of roots    =         1
   Preconditioning    =    JACOBI
   Convergence cutoff =     1E-06
   Maximum iterations =       100

  ==> CPHFRHamiltonian (by Rob Parrish) <== 

  ==> MemDFJK: Density-Fitted J/K Matrices <==

    J tasked:                   Yes
    K tasked:                   Yes
    wK tasked:                   No
    OpenMP threads:               1
    Memory [MiB]:             22888
    Algorithm:                 Core
    Schwarz Cutoff:           1E-12
    Mask sparsity (%):       8.9620
    Fitting Condition:        1E-10

   => Auxiliary Basis Set <=

  Basis Set: (CC-PVDZ AUX)
    Blend: CC-PVDZ-JKFIT
    Number of shells: 423
    Number of basis functions: 1185
    Number of Cartesian functions: 1347
    Spherical Harmonics?: true
    Max angular momentum: 3

  ==> CPHF Iterations <==

  => Iterations <=

             Iter  Converged  Remaining    Residual
  CGR           1          0          1   1.216E-01
  CGR           2          0          1   4.826E-02
  CGR           3          0          1   2.632E-02
  CGR           4          0          1   8.388E-03
  CGR           5          0          1   4.401E-03
  CGR           6          0          1   1.829E-03
  CGR           7          0          1   5.819E-04
  CGR           8          0          1   2.058E-04
  CGR           9          0          1   6.878E-05
  CGR          10          0          1   1.480E-05
  CGR          11          0          1   5.571E-06
  CGR          12          0          1   2.164E-06
  CGR          13          1          0   9.082E-07

    CGRSolver converged.

  ==> DFCorrGrad: Density-Fitted Correlated Gradients <==

    OpenMP threads:              1
    Integrals threads:           1
    Memory [GiB]:           22.352
    Schwarz Cutoff:          0E+00
    Fitting Condition:       1E-10

   => Auxiliary Basis Set <=

  Basis Set: (CC-PVDZ AUX)
    Blend: CC-PVDZ-JKFIT
    Number of shells: 423
    Number of basis functions: 1185
    Number of Cartesian functions: 1347
    Spherical Harmonics?: true
    Max angular momentum: 3

	-----------------------------------------------------------
	 ==================> DF-MP2 Energies <==================== 
	-----------------------------------------------------------
	 Reference Energy          =    -462.9535787241763956 [Eh]
	 Singles Energy            =      -0.0000000000000000 [Eh]
	 Same-Spin Energy          =      -0.4154190636504718 [Eh]
	 Opposite-Spin Energy      =      -1.2094419894008654 [Eh]
	 Correlation Energy        =      -1.6248610530513372 [Eh]
	 Total Energy              =    -464.5784397772277430 [Eh]
	-----------------------------------------------------------
	 ================> DF-SCS-MP2 Energies <================== 
	-----------------------------------------------------------
	 SCS Same-Spin Scale       =       0.3333333333333333 [-]
	 SCS Opposite-Spin Scale   =       1.2000000000000000 [-]
	 SCS Same-Spin Energy      =      -0.1384730212168239 [Eh]
	 SCS Opposite-Spin Energy  =      -1.4513303872810386 [Eh]
	 SCS Correlation Energy    =      -1.5898034084978625 [Eh]
	 SCS Total Energy          =    -464.5433821326742532 [Eh]
	-----------------------------------------------------------


  -Total Gradient:
     Atom            X                  Y                   Z
    ------   -----------------  -----------------  -----------------
       1       -0.000021067553    -0.000036771363    -0.000090278044
       2        0.000064689865     0.000013986977    -0.000011657153
       3       -0.000033423761    -0.000071149481    -0.000017063768
       4        0.000069336692     0.000000152663    -0.000030317937
       5        0.000034709777     0.000029845301     0.000002846176
       6       -0.000002047009     0.000163694319    -0.000013645910
       7        0.000041445627    -0.000067024005     0.000113045330
       8        0.000015002733     0.000003014360    -0.000001691211
       9       -0.000010054990    -0.000049206524     0.000031256058
      10        0.000027546604    -0.000011471538     0.000037606035
      11       -0.000007197163    -0.000015329546     0.000006948109
      12       -0.000049170608     0.000033949222     0.000070737647
      13       -0.000008755598     0.000045350434    -0.000076791720
      14       -0.000003642707     0.000041870568    -0.000047852104
      15        0.000023868245     0.000093240539     0.000044178335
      16       -0.000025284348    -0.000113508792    -0.000019890104
      17       -0.000052014104     0.000077246045     0.000006010137
      18       -0.000154031366    -0.000078323198     0.000052863876
      19        0.000104111094     0.000109601530     0.000009364286
      20       -0.000010727806     0.000018163644     0.000005477917
      21       -0.000061790215     0.000007390733     0.000025706536
      22       -0.000190067770    -0.000056958639     0.000034960618
      23       -0.000004056088    -0.000041483651     0.000016780293
      24        0.000237367371    -0.000104529453    -0.000062271805
      25       -0.000023349163    -0.000046273640     0.000001948303
      26        0.000078305158     0.000047602811    -0.000047095968
      27       -0.000039702922     0.000006920682    -0.000041173934


*** tstop() called on skystd01.palmetto.clemson.edu at Thu Dec 30 19:51:52 2021
Module time:
	user time   =      62.54 seconds =       1.04 minutes
	system time =       3.31 seconds =       0.06 minutes
	total time  =         66 seconds =       1.10 minutes
Total time:
	user time   =      77.51 seconds =       1.29 minutes
	system time =       4.03 seconds =       0.07 minutes
	total time  =         81 seconds =       1.35 minutes

  Based on options and gradient (rms=6.35E-05), recommend projecting translations and projecting rotations.
hessian() will perform frequency computation by finite difference of analytic gradients.

         ----------------------------------------------------------
                                   FINDIF
                     R. A. King and Jonathon Misiewicz
         ---------------------------------------------------------

  Using finite-differences of gradients to determine vibrational frequencies and 
  normal modes. Resulting frequencies are only valid at stationary points.
    Generating geometries for use with 3-point formula.
    Displacement size will be 5.00e-03.
    Number of atoms is 27.
    Number of irreps is 1.
    Number of SALCs is 75.
    Translations projected? 1. Rotations projected? 1.
    Index of SALCs per irrep:
     1 :  0  1  2  3  4  5  6  7  8  9  10  11  12  13  14  15  16  17  18  19  20  21  22  23  24  25  26  27  28  29  30  31  32  33  34  35  36  37  38  39  40  41  42  43  44  45  46  47  48  49  50  51  52  53  54  55  56  57  58  59  60  61  62  63  64  65  66  67  68  69  70  71  72  73  74 
    Number of SALCs per irrep:
     Irrep 1: 75
    Number of geometries (including reference) is 151.
    Number of displacements per irrep:
      Irrep 1: 150

  //>>>>>>>>>>>>>>>>>>>>>>>>>>>>>>>>>>>//
  //   Loading displacement 1 of 151   //
  //<<<<<<<<<<<<<<<<<<<<<<<<<<<<<<<<<<<//

Scratch directory: /tmp/
gradient() will perform analytic gradient computation.

*** tstart() called on skystd01.palmetto.clemson.edu
*** at Thu Dec 30 19:51:54 2021

   => Loading Basis Set <=

    Name: CC-PVDZ
    Role: ORBITAL
    Keyword: BASIS
    atoms 1-6, 14-19  entry C          line   138 file /home/maxbuskirk/.conda/envs/psifour/share/psi4/basis/cc-pvdz.gbs 
    atoms 7-13, 20-27 entry H          line    22 file /home/maxbuskirk/.conda/envs/psifour/share/psi4/basis/cc-pvdz.gbs 


         ---------------------------------------------------------
                                   SCF
               by Justin Turney, Rob Parrish, Andy Simmonett
                          and Daniel G. A. Smith
                              RHF Reference
                        1 Threads,  30517 MiB Core
         ---------------------------------------------------------

  ==> Geometry <==

    Molecular point group: c1
    Full point group: C1

    Geometry (in Angstrom), charge = 1, multiplicity = 1:

       Center              X                  Y                   Z               Mass       
    ------------   -----------------  -----------------  -----------------  -----------------
         C            1.566400464306    -0.456857087399    -2.136496602398    12.000000000000
         C            0.553214756006     0.576323785901    -0.048160880298    12.000000000000
         C            0.702612388406     2.024186051601     0.272507281702    12.000000000000
         C            2.227518145306     2.179068299501     0.453834100302    12.000000000000
         C            2.771745899206     1.294471134201    -0.672977660098    12.000000000000
         C            1.810466544606     0.083357875101    -0.709274553998    12.000000000000
         H            2.208364259506    -0.736177810899    -0.077047995198     1.007825032230
         H            3.818073882406     0.989235180201    -0.530755072198     1.007825032230
         H            2.707834025206     1.833764199301    -1.634001605398     1.007825032230
         H            2.524220843206     1.789276262201     1.441883733302     1.007825032230
         H            2.547018231906     3.228479782201     0.389829915302     1.007825032230
         H            0.074594142506     2.383704125001     1.098140959702     1.007825032230
         H            0.405562903606     2.570691530101    -0.650491796498     1.007825032230
         C           -0.579394817794    -0.218337549099     0.247341868302    12.000000000000
         C           -0.518222630094    -1.645684994299     0.141277194002    12.000000000000
         C           -1.644059759094    -2.411859467999     0.431954886102    12.000000000000
         C           -2.849264469594    -1.779406180699     0.805499361502    12.000000000000
         C           -2.928504592194    -0.375332562299     0.912162528002    12.000000000000
         C           -1.802044875694     0.404025903401     0.658822033002    12.000000000000
         H           -1.862945497194     1.492098650001     0.734917077902     1.007825032230
         H           -3.869147145594     0.098143953101     1.203877891602     1.007825032230
         H           -3.732942163194    -2.387583734499     1.023457823802     1.007825032230
         H           -1.595557632294    -3.501993958099     0.373673378402     1.007825032230
         H            0.421942378606    -2.135422858699    -0.122194915098     1.007825032230
         H            0.938958465506    -1.358804997099    -2.149650721898     1.007825032230
         H            2.539827752106    -0.698842853399    -2.589844040998     1.007825032230
         H            1.084346219606     0.315592012601    -2.756454704298     1.007825032230

  Running in c1 symmetry.

  Rotational constants: A =      0.06590  B =      0.02012  C =      0.01662 [cm^-1]
  Rotational constants: A =   1975.77712  B =    603.23496  C =    498.22934 [MHz]
  Nuclear repulsion =  668.694949300837720

  Charge       = 1
  Multiplicity = 1
  Electrons    = 86
  Nalpha       = 43
  Nbeta        = 43

  ==> Algorithm <==

  SCF Algorithm Type is DF.
  DIIS enabled.
  MOM disabled.
  Fractional occupation disabled.
  Guess Type is SAD.
  Energy threshold   = 1.00e-10
  Density threshold  = 1.00e-10
  Integral threshold = 1.00e-12

  ==> Primary Basis <==

  Basis Set: CC-PVDZ
    Blend: CC-PVDZ
    Number of shells: 117
    Number of basis functions: 243
    Number of Cartesian functions: 255
    Spherical Harmonics?: true
    Max angular momentum: 2

   => Loading Basis Set <=

    Name: (CC-PVDZ AUX)
    Role: JKFIT
    Keyword: DF_BASIS_SCF
    atoms 1-6, 14-19  entry C          line   121 file /home/maxbuskirk/.conda/envs/psifour/share/psi4/basis/cc-pvdz-jkfit.gbs 
    atoms 7-13, 20-27 entry H          line    51 file /home/maxbuskirk/.conda/envs/psifour/share/psi4/basis/cc-pvdz-jkfit.gbs 

  ==> Integral Setup <==

  DFHelper Memory: AOs need 0.495 GiB; user supplied 22.352 GiB. Using in-core AOs.

  ==> MemDFJK: Density-Fitted J/K Matrices <==

    J tasked:                   Yes
    K tasked:                   Yes
    wK tasked:                   No
    OpenMP threads:               1
    Memory [MiB]:             22888
    Algorithm:                 Core
    Schwarz Cutoff:           1E-12
    Mask sparsity (%):       8.9620
    Fitting Condition:        1E-10

   => Auxiliary Basis Set <=

  Basis Set: (CC-PVDZ AUX)
    Blend: CC-PVDZ-JKFIT
    Number of shells: 423
    Number of basis functions: 1185
    Number of Cartesian functions: 1347
    Spherical Harmonics?: true
    Max angular momentum: 3

  Minimum eigenvalue in the overlap matrix is 3.3987678447E-04.
  Reciprocal condition number of the overlap matrix is 5.0262877984E-05.
    Using symmetric orthogonalization.

  ==> Pre-Iterations <==

  SCF Guess: Superposition of Atomic Densities via on-the-fly atomic UHF (no occupation information).

   -------------------------
    Irrep   Nso     Nmo    
   -------------------------
     A        243     243 
   -------------------------
    Total     243     243
   -------------------------

  ==> Iterations <==

                           Total Energy        Delta E     RMS |[F,P]|

   @DF-RHF iter SAD:  -462.59635114971974   -4.62596e+02   0.00000e+00 
   @DF-RHF iter   1:  -462.72638155636639   -1.30030e-01   2.23099e-03 DIIS
   @DF-RHF iter   2:  -462.91950812419032   -1.93127e-01   9.22842e-04 DIIS
   @DF-RHF iter   3:  -462.94815309962121   -2.86450e-02   3.20780e-04 DIIS
   @DF-RHF iter   4:  -462.95289018876008   -4.73709e-03   1.12687e-04 DIIS
   @DF-RHF iter   5:  -462.95344887928411   -5.58691e-04   2.96919e-05 DIIS
   @DF-RHF iter   6:  -462.95354689696205   -9.80177e-05   1.28174e-05 DIIS
   @DF-RHF iter   7:  -462.95356990722212   -2.30103e-05   6.70522e-06 DIIS
   @DF-RHF iter   8:  -462.95357722230062   -7.31508e-06   2.60836e-06 DIIS
   @DF-RHF iter   9:  -462.95357855812171   -1.33582e-06   1.11724e-06 DIIS
   @DF-RHF iter  10:  -462.95357870967672   -1.51555e-07   3.32742e-07 DIIS
   @DF-RHF iter  11:  -462.95357872239100   -1.27143e-08   1.07403e-07 DIIS
   @DF-RHF iter  12:  -462.95357872326002   -8.69022e-10   3.39221e-08 DIIS
   @DF-RHF iter  13:  -462.95357872339434   -1.34321e-10   1.53567e-08 DIIS
   @DF-RHF iter  14:  -462.95357872341771   -2.33626e-11   4.59473e-09 DIIS
   @DF-RHF iter  15:  -462.95357872342061   -2.89901e-12   1.55752e-09 DIIS
   @DF-RHF iter  16:  -462.95357872342038    2.27374e-13   6.83781e-10 DIIS
   @DF-RHF iter  17:  -462.95357872342089   -5.11591e-13   3.33539e-10 DIIS
   @DF-RHF iter  18:  -462.95357872342112   -2.27374e-13   1.44345e-10 DIIS
   @DF-RHF iter  19:  -462.95357872341839    2.72848e-12   7.25580e-11 DIIS
  Energy and wave function converged.


  ==> Post-Iterations <==

    Orbital Energies [Eh]
    ---------------------

    Doubly Occupied:                                                      

       1A    -11.498360     2A    -11.434382     3A    -11.433839  
       4A    -11.432139     5A    -11.421264     6A    -11.406039  
       7A    -11.405582     8A    -11.401596     9A    -11.401151  
      10A    -11.378794    11A    -11.376480    12A    -11.372913  
      13A     -1.347133    14A     -1.302490    15A     -1.210033  
      16A     -1.191249    17A     -1.173221    18A     -1.112829  
      19A     -1.054712    20A     -1.001154    21A     -0.996363  
      22A     -0.941364    23A     -0.900005    24A     -0.866679  
      25A     -0.826566    26A     -0.810051    27A     -0.784600  
      28A     -0.772831    29A     -0.760404    30A     -0.738469  
      31A     -0.720625    32A     -0.703886    33A     -0.696340  
      34A     -0.681198    35A     -0.667940    36A     -0.659331  
      37A     -0.648909    38A     -0.634246    39A     -0.628279  
      40A     -0.615520    41A     -0.610219    42A     -0.515839  
      43A     -0.500916  

    Virtual:                                                              

      44A     -0.150921    45A     -0.025170    46A      0.008158  
      47A      0.032532    48A      0.055056    49A      0.061754  
      50A      0.071577    51A      0.089480    52A      0.098620  
      53A      0.117733    54A      0.120073    55A      0.126546  
      56A      0.136446    57A      0.143389    58A      0.153109  
      59A      0.163784    60A      0.168451    61A      0.183529  
      62A      0.190506    63A      0.194845    64A      0.219454  
      65A      0.232362    66A      0.258346    67A      0.262092  
      68A      0.286786    69A      0.291840    70A      0.306543  
      71A      0.331649    72A      0.351584    73A      0.359855  
      74A      0.435665    75A      0.437928    76A      0.451083  
      77A      0.460174    78A      0.480009    79A      0.494485  
      80A      0.519187    81A      0.521971    82A      0.539794  
      83A      0.546583    84A      0.560498    85A      0.563547  
      86A      0.570650    87A      0.574104    88A      0.583745  
      89A      0.588603    90A      0.591421    91A      0.610349  
      92A      0.627751    93A      0.651515    94A      0.672165  
      95A      0.682471    96A      0.688214    97A      0.694849  
      98A      0.702994    99A      0.717355   100A      0.720270  
     101A      0.723682   102A      0.731915   103A      0.737507  
     104A      0.743602   105A      0.748175   106A      0.755565  
     107A      0.762104   108A      0.772721   109A      0.773809  
     110A      0.782458   111A      0.786972   112A      0.788670  
     113A      0.803479   114A      0.810181   115A      0.818232  
     116A      0.832095   117A      0.853594   118A      0.874555  
     119A      0.882374   120A      0.912427   121A      0.955603  
     122A      0.961721   123A      0.977203   124A      0.989535  
     125A      1.001356   126A      1.010983   127A      1.025018  
     128A      1.039623   129A      1.051714   130A      1.068660  
     131A      1.109036   132A      1.129481   133A      1.131751  
     134A      1.139147   135A      1.143852   136A      1.184227  
     137A      1.220459   138A      1.222549   139A      1.264633  
     140A      1.286531   141A      1.310849   142A      1.327143  
     143A      1.340440   144A      1.377370   145A      1.394957  
     146A      1.406624   147A      1.412600   148A      1.434633  
     149A      1.480158   150A      1.530428   151A      1.546628  
     152A      1.561120   153A      1.575796   154A      1.582639  
     155A      1.587731   156A      1.601588   157A      1.608664  
     158A      1.630195   159A      1.643961   160A      1.672122  
     161A      1.686108   162A      1.696642   163A      1.699260  
     164A      1.703706   165A      1.711625   166A      1.716377  
     167A      1.734100   168A      1.743657   169A      1.754622  
     170A      1.763189   171A      1.778768   172A      1.783001  
     173A      1.789009   174A      1.796706   175A      1.808323  
     176A      1.822498   177A      1.826318   178A      1.828984  
     179A      1.844473   180A      1.853272   181A      1.867391  
     182A      1.885424   183A      1.894583   184A      1.903196  
     185A      1.908107   186A      1.922512   187A      1.932377  
     188A      1.949190   189A      1.962091   190A      1.978219  
     191A      1.984039   192A      1.989892   193A      1.997052  
     194A      2.017351   195A      2.045927   196A      2.055918  
     197A      2.061689   198A      2.072856   199A      2.088463  
     200A      2.090573   201A      2.097935   202A      2.125786  
     203A      2.137582   204A      2.160591   205A      2.191652  
     206A      2.209024   207A      2.220440   208A      2.230648  
     209A      2.275933   210A      2.284882   211A      2.299718  
     212A      2.323435   213A      2.328919   214A      2.351923  
     215A      2.357586   216A      2.386609   217A      2.409823  
     218A      2.439999   219A      2.465812   220A      2.502553  
     221A      2.531062   222A      2.553377   223A      2.567455  
     224A      2.590283   225A      2.604802   226A      2.611977  
     227A      2.622380   228A      2.626853   229A      2.690232  
     230A      2.701976   231A      2.737404   232A      2.764538  
     233A      2.782835   234A      2.793857   235A      2.838006  
     236A      2.845128   237A      2.879427   238A      2.899164  
     239A      2.912471   240A      3.007268   241A      3.010232  
     242A      3.130011   243A      3.745754  

    Final Occupation by Irrep:
              A 
    DOCC [    43 ]

  @DF-RHF Final Energy:  -462.95357872341839

   => Energetics <=

    Nuclear Repulsion Energy =            668.6949493008377203
    One-Electron Energy =               -1937.2251771693186129
    Two-Electron Energy =                 805.5766491450623334
    Total Energy =                       -462.9535787234184454

Computation Completed


Properties will be evaluated at   0.000000,   0.000000,   0.000000 [a0]

Properties computed using the SCF density matrix

  Nuclear Dipole Moment: [e a0]
     X:     7.6968      Y:     3.6394      Z:    -3.9792

  Electronic Dipole Moment: [e a0]
     X:    -7.9722      Y:    -3.6291      Z:     4.1074

  Dipole Moment: [e a0]
     X:    -0.2754      Y:     0.0103      Z:     0.1282     Total:     0.3039

  Dipole Moment: [D]
     X:    -0.7000      Y:     0.0262      Z:     0.3257     Total:     0.7726


*** tstop() called on skystd01.palmetto.clemson.edu at Thu Dec 30 19:52:09 2021
Module time:
	user time   =      14.93 seconds =       0.25 minutes
	system time =       0.65 seconds =       0.01 minutes
	total time  =         15 seconds =       0.25 minutes
Total time:
	user time   =      92.68 seconds =       1.54 minutes
	system time =       4.71 seconds =       0.08 minutes
	total time  =         98 seconds =       1.63 minutes

*** tstart() called on skystd01.palmetto.clemson.edu
*** at Thu Dec 30 19:52:09 2021


  //>>>>>>>>>>>>>>>>>>>>>>>>>>>>>>>>>>>//
  //               DFMP2               //
  //<<<<<<<<<<<<<<<<<<<<<<<<<<<<<<<<<<<//

   => Loading Basis Set <=

    Name: (CC-PVDZ AUX)
    Role: RIFIT
    Keyword: DF_BASIS_MP2
    atoms 1-6, 14-19  entry C          line   159 file /home/maxbuskirk/.conda/envs/psifour/share/psi4/basis/cc-pvdz-ri.gbs 
    atoms 7-13, 20-27 entry H          line    19 file /home/maxbuskirk/.conda/envs/psifour/share/psi4/basis/cc-pvdz-ri.gbs 

	 --------------------------------------------------------
	                          DF-MP2                         
	      2nd-Order Density-Fitted Moller-Plesset Theory     
	              RMP2 Wavefunction,   1 Threads             
	                                                         
	        Rob Parrish, Justin Turney, Andy Simmonett,      
	           Ed Hohenstein, and C. David Sherrill          
	 --------------------------------------------------------

   => Auxiliary Basis Set <=

  Basis Set: (CC-PVDZ AUX)
    Blend: CC-PVDZ-RI
    Number of shells: 306
    Number of basis functions: 882
    Number of Cartesian functions: 1017
    Spherical Harmonics?: true
    Max angular momentum: 3

	 --------------------------------------------------------
	                 NBF =   243, NAUX =   882
	 --------------------------------------------------------
	   CLASS    FOCC     OCC    AOCC    AVIR     VIR    FVIR
	   PAIRS       0      43      43     200     200       0
	 --------------------------------------------------------

  DFHelper Memory: AOs need 0.495 GiB; user supplied 22.352 GiB. Using in-core AOs.


         ------------------------------------------------------------
                                     CPHF                           
                                  Rob Parrish                       
         ------------------------------------------------------------

  ==> Geometry <==

    Molecular point group: c1
    Full point group: C1

    Geometry (in Angstrom), charge = 1, multiplicity = 1:

       Center              X                  Y                   Z               Mass       
    ------------   -----------------  -----------------  -----------------  -----------------
         C            1.566400464306    -0.456857087399    -2.136496602398    12.000000000000
         C            0.553214756006     0.576323785901    -0.048160880298    12.000000000000
         C            0.702612388406     2.024186051601     0.272507281702    12.000000000000
         C            2.227518145306     2.179068299501     0.453834100302    12.000000000000
         C            2.771745899206     1.294471134201    -0.672977660098    12.000000000000
         C            1.810466544606     0.083357875101    -0.709274553998    12.000000000000
         H            2.208364259506    -0.736177810899    -0.077047995198     1.007825032230
         H            3.818073882406     0.989235180201    -0.530755072198     1.007825032230
         H            2.707834025206     1.833764199301    -1.634001605398     1.007825032230
         H            2.524220843206     1.789276262201     1.441883733302     1.007825032230
         H            2.547018231906     3.228479782201     0.389829915302     1.007825032230
         H            0.074594142506     2.383704125001     1.098140959702     1.007825032230
         H            0.405562903606     2.570691530101    -0.650491796498     1.007825032230
         C           -0.579394817794    -0.218337549099     0.247341868302    12.000000000000
         C           -0.518222630094    -1.645684994299     0.141277194002    12.000000000000
         C           -1.644059759094    -2.411859467999     0.431954886102    12.000000000000
         C           -2.849264469594    -1.779406180699     0.805499361502    12.000000000000
         C           -2.928504592194    -0.375332562299     0.912162528002    12.000000000000
         C           -1.802044875694     0.404025903401     0.658822033002    12.000000000000
         H           -1.862945497194     1.492098650001     0.734917077902     1.007825032230
         H           -3.869147145594     0.098143953101     1.203877891602     1.007825032230
         H           -3.732942163194    -2.387583734499     1.023457823802     1.007825032230
         H           -1.595557632294    -3.501993958099     0.373673378402     1.007825032230
         H            0.421942378606    -2.135422858699    -0.122194915098     1.007825032230
         H            0.938958465506    -1.358804997099    -2.149650721898     1.007825032230
         H            2.539827752106    -0.698842853399    -2.589844040998     1.007825032230
         H            1.084346219606     0.315592012601    -2.756454704298     1.007825032230

  Nuclear repulsion =  668.694949300837720
  Reference energy  = -462.953578723418389

  ==> Basis Set <==

  Basis Set: CC-PVDZ
    Blend: CC-PVDZ
    Number of shells: 117
    Number of basis functions: 243
    Number of Cartesian functions: 255
    Spherical Harmonics?: true
    Max angular momentum: 2

  ==> CGRSolver (by Rob Parrish) <==

   Number of roots    =         1
   Preconditioning    =    JACOBI
   Convergence cutoff =     1E-06
   Maximum iterations =       100

  ==> CPHFRHamiltonian (by Rob Parrish) <== 

  ==> MemDFJK: Density-Fitted J/K Matrices <==

    J tasked:                   Yes
    K tasked:                   Yes
    wK tasked:                   No
    OpenMP threads:               1
    Memory [MiB]:             22888
    Algorithm:                 Core
    Schwarz Cutoff:           1E-12
    Mask sparsity (%):       8.9620
    Fitting Condition:        1E-10

   => Auxiliary Basis Set <=

  Basis Set: (CC-PVDZ AUX)
    Blend: CC-PVDZ-JKFIT
    Number of shells: 423
    Number of basis functions: 1185
    Number of Cartesian functions: 1347
    Spherical Harmonics?: true
    Max angular momentum: 3

  ==> CPHF Iterations <==

  => Iterations <=

             Iter  Converged  Remaining    Residual
  CGR           1          0          1   1.216E-01
  CGR           2          0          1   4.826E-02
  CGR           3          0          1   2.632E-02
  CGR           4          0          1   8.388E-03
  CGR           5          0          1   4.401E-03
  CGR           6          0          1   1.829E-03
  CGR           7          0          1   5.819E-04
  CGR           8          0          1   2.058E-04
  CGR           9          0          1   6.878E-05
  CGR          10          0          1   1.480E-05
  CGR          11          0          1   5.571E-06
  CGR          12          0          1   2.164E-06
  CGR          13          1          0   9.082E-07

    CGRSolver converged.

  ==> DFCorrGrad: Density-Fitted Correlated Gradients <==

    OpenMP threads:              1
    Integrals threads:           1
    Memory [GiB]:           22.352
    Schwarz Cutoff:          0E+00
    Fitting Condition:       1E-10

   => Auxiliary Basis Set <=

  Basis Set: (CC-PVDZ AUX)
    Blend: CC-PVDZ-JKFIT
    Number of shells: 423
    Number of basis functions: 1185
    Number of Cartesian functions: 1347
    Spherical Harmonics?: true
    Max angular momentum: 3

	-----------------------------------------------------------
	 ==================> DF-MP2 Energies <==================== 
	-----------------------------------------------------------
	 Reference Energy          =    -462.9535787234183886 [Eh]
	 Singles Energy            =      -0.0000000000000000 [Eh]
	 Same-Spin Energy          =      -0.4154190636493897 [Eh]
	 Opposite-Spin Energy      =      -1.2094419893985973 [Eh]
	 Correlation Energy        =      -1.6248610530479870 [Eh]
	 Total Energy              =    -464.5784397764663822 [Eh]
	-----------------------------------------------------------
	 ================> DF-SCS-MP2 Energies <================== 
	-----------------------------------------------------------
	 SCS Same-Spin Scale       =       0.3333333333333333 [-]
	 SCS Opposite-Spin Scale   =       1.2000000000000000 [-]
	 SCS Same-Spin Energy      =      -0.1384730212164632 [Eh]
	 SCS Opposite-Spin Energy  =      -1.4513303872783168 [Eh]
	 SCS Correlation Energy    =      -1.5898034084947801 [Eh]
	 SCS Total Energy          =    -464.5433821319131766 [Eh]
	-----------------------------------------------------------


  -Total Gradient:
     Atom            X                  Y                   Z
    ------   -----------------  -----------------  -----------------
       1       -0.000021067901    -0.000036775292    -0.000090287969
       2        0.000064627556     0.000014001912    -0.000011644850
       3       -0.000033405870    -0.000071145859    -0.000017069348
       4        0.000069340771     0.000000148069    -0.000030311541
       5        0.000034718128     0.000029850068     0.000002840258
       6       -0.000002030300     0.000163682049    -0.000013624084
       7        0.000041437695    -0.000067009675     0.000113035074
       8        0.000014992878     0.000003016074    -0.000001691989
       9       -0.000010053888    -0.000049209166     0.000031261114
      10        0.000027544028    -0.000011468547     0.000037597983
      11       -0.000007200140    -0.000015337825     0.000006948237
      12       -0.000049165885     0.000033946480     0.000070732494
      13       -0.000008753357     0.000045346352    -0.000076785220
      14       -0.000003636008     0.000041863725    -0.000047854556
      15        0.000023888210     0.000093232161     0.000044171968
      16       -0.000025272748    -0.000113511090    -0.000019893286
      17       -0.000052015697     0.000077241842     0.000006010465
      18       -0.000154035454    -0.000078325381     0.000052864012
      19        0.000104122089     0.000109603276     0.000009358929
      20       -0.000010728149     0.000018168948     0.000005478157
      21       -0.000061793216     0.000007392475     0.000025707499
      22       -0.000190068129    -0.000056958785     0.000034960684
      23       -0.000004056627    -0.000041482017     0.000016780495
      24        0.000237358188    -0.000104523502    -0.000062268984
      25       -0.000023344244    -0.000046266578     0.000001948593
      26        0.000078298115     0.000047604469    -0.000047092515
      27       -0.000039700045     0.000006915816    -0.000041171618


*** tstop() called on skystd01.palmetto.clemson.edu at Thu Dec 30 19:53:15 2021
Module time:
	user time   =      62.42 seconds =       1.04 minutes
	system time =       2.88 seconds =       0.05 minutes
	total time  =         66 seconds =       1.10 minutes
Total time:
	user time   =     155.10 seconds =       2.58 minutes
	system time =       7.59 seconds =       0.13 minutes
	total time  =        164 seconds =       2.73 minutes

  //>>>>>>>>>>>>>>>>>>>>>>>>>>>>>>>>>>>//
  //   Loading displacement 2 of 151   //
  //<<<<<<<<<<<<<<<<<<<<<<<<<<<<<<<<<<<//

Scratch directory: /tmp/
gradient() will perform analytic gradient computation.

*** tstart() called on skystd01.palmetto.clemson.edu
*** at Thu Dec 30 19:53:15 2021

   => Loading Basis Set <=

    Name: CC-PVDZ
    Role: ORBITAL
    Keyword: BASIS
    atoms 1-6, 14-19  entry C          line   138 file /home/maxbuskirk/.conda/envs/psifour/share/psi4/basis/cc-pvdz.gbs 
    atoms 7-13, 20-27 entry H          line    22 file /home/maxbuskirk/.conda/envs/psifour/share/psi4/basis/cc-pvdz.gbs 


         ---------------------------------------------------------
                                   SCF
               by Justin Turney, Rob Parrish, Andy Simmonett
                          and Daniel G. A. Smith
                              RHF Reference
                        1 Threads,  30517 MiB Core
         ---------------------------------------------------------

  ==> Geometry <==

    Molecular point group: c1
    Full point group: C1

    Geometry (in Angstrom), charge = 1, multiplicity = 1:

       Center              X                  Y                   Z               Mass       
    ------------   -----------------  -----------------  -----------------  -----------------
         C            1.565710645266    -0.456899824288    -2.136419925689    12.000000000000
         C            0.553274315716     0.576328382388    -0.048154361865    12.000000000000
         C            0.702643314844     2.024201190212     0.272479541042    12.000000000000
         C            2.227540007067     2.179104862720     0.453864290882    12.000000000000
         C            2.771823255141     1.294482131140    -0.672900596269    12.000000000000
         C            1.810558383877     0.083357540687    -0.709202972167    12.000000000000
         H            2.208439088510    -0.736156251097    -0.076937327002     1.007825032230
         H            3.818148709447     0.989261374086    -0.530626787906     1.007825032230
         H            2.707944821785     1.833747722569    -1.633942182768     1.007825032230
         H            2.524206556165     1.789343551483     1.441936900684     1.007825032230
         H            2.547031440653     3.228517991296     0.389843896975     1.007825032230
         H            0.074587506087     2.383735535346     1.098077561409     1.007825032230
         H            0.405625641042     2.570677752144    -0.650546896344     1.007825032230
         C           -0.579338789928    -0.218336874671     0.247324302668    12.000000000000
         C           -0.518146949552    -1.645686619613     0.141301911336    12.000000000000
         C           -1.643987719246    -2.411865077161     0.431955001786    12.000000000000
         C           -2.849214467837    -1.779414315916     0.805432650342    12.000000000000
         C           -2.928474017692    -0.375338575056     0.912053445054    12.000000000000
         C           -1.802012326180     0.404024921912     0.658737209629    12.000000000000
         H           -1.862927734747     1.492099135797     0.734799439581     1.007825032230
         H           -3.869133562161     0.098135973539     1.203717212859     1.007825032230
         H           -3.732894529790    -2.387595280886     1.023371992219     1.007825032230
         H           -1.595471510415    -3.502000671114     0.373705860382     1.007825032230
         H            0.422034071864    -2.135421735083    -0.122118168194     1.007825032230
         H            0.939124584645    -1.358854836419    -2.149574517225     1.007825032230
         H            2.540004755561    -0.698887776857    -2.589720882751     1.007825032230
         H            1.084519134047     0.315526820022    -2.756419236831     1.007825032230

  Running in c1 symmetry.

  Rotational constants: A =      0.06591  B =      0.02012  C =      0.01662 [cm^-1]
  Rotational constants: A =   1975.81606  B =    603.24837  C =    498.24895 [MHz]
  Nuclear repulsion =  668.698043264788907

  Charge       = 1
  Multiplicity = 1
  Electrons    = 86
  Nalpha       = 43
  Nbeta        = 43

  ==> Algorithm <==

  SCF Algorithm Type is DF.
  DIIS enabled.
  MOM disabled.
  Fractional occupation disabled.
  Guess Type is SAD.
  Energy threshold   = 1.00e-10
  Density threshold  = 1.00e-10
  Integral threshold = 1.00e-12

  ==> Primary Basis <==

  Basis Set: CC-PVDZ
    Blend: CC-PVDZ
    Number of shells: 117
    Number of basis functions: 243
    Number of Cartesian functions: 255
    Spherical Harmonics?: true
    Max angular momentum: 2

   => Loading Basis Set <=

    Name: (CC-PVDZ AUX)
    Role: JKFIT
    Keyword: DF_BASIS_SCF
    atoms 1-6, 14-19  entry C          line   121 file /home/maxbuskirk/.conda/envs/psifour/share/psi4/basis/cc-pvdz-jkfit.gbs 
    atoms 7-13, 20-27 entry H          line    51 file /home/maxbuskirk/.conda/envs/psifour/share/psi4/basis/cc-pvdz-jkfit.gbs 

  ==> Integral Setup <==

  DFHelper Memory: AOs need 0.495 GiB; user supplied 22.352 GiB. Using in-core AOs.

  ==> MemDFJK: Density-Fitted J/K Matrices <==

    J tasked:                   Yes
    K tasked:                   Yes
    wK tasked:                   No
    OpenMP threads:               1
    Memory [MiB]:             22888
    Algorithm:                 Core
    Schwarz Cutoff:           1E-12
    Mask sparsity (%):       8.9620
    Fitting Condition:        1E-10

   => Auxiliary Basis Set <=

  Basis Set: (CC-PVDZ AUX)
    Blend: CC-PVDZ-JKFIT
    Number of shells: 423
    Number of basis functions: 1185
    Number of Cartesian functions: 1347
    Spherical Harmonics?: true
    Max angular momentum: 3

  Minimum eigenvalue in the overlap matrix is 3.3987769444E-04.
  Reciprocal condition number of the overlap matrix is 5.0263195677E-05.
    Using symmetric orthogonalization.

  ==> Pre-Iterations <==

  SCF Guess: Superposition of Atomic Densities via on-the-fly atomic UHF (no occupation information).

   -------------------------
    Irrep   Nso     Nmo    
   -------------------------
     A        243     243 
   -------------------------
    Total     243     243
   -------------------------

  ==> Iterations <==

                           Total Energy        Delta E     RMS |[F,P]|

   @DF-RHF iter SAD:  -462.59623447811634   -4.62596e+02   0.00000e+00 
   @DF-RHF iter   1:  -462.72640057460319   -1.30166e-01   2.23087e-03 DIIS
   @DF-RHF iter   2:  -462.91951698145402   -1.93116e-01   9.22665e-04 DIIS
   @DF-RHF iter   3:  -462.94815291627253   -2.86359e-02   3.20733e-04 DIIS
   @DF-RHF iter   4:  -462.95288864163825   -4.73573e-03   1.12671e-04 DIIS
   @DF-RHF iter   5:  -462.95344712829581   -5.58487e-04   2.96885e-05 DIIS
   @DF-RHF iter   6:  -462.95354510806658   -9.79798e-05   1.28137e-05 DIIS
   @DF-RHF iter   7:  -462.95356810346209   -2.29954e-05   6.70345e-06 DIIS
   @DF-RHF iter   8:  -462.95357541300234   -7.30954e-06   2.60802e-06 DIIS
   @DF-RHF iter   9:  -462.95357674850084   -1.33550e-06   1.11710e-06 DIIS
   @DF-RHF iter  10:  -462.95357690004056   -1.51540e-07   3.32694e-07 DIIS
   @DF-RHF iter  11:  -462.95357691274967   -1.27091e-08   1.07392e-07 DIIS
   @DF-RHF iter  12:  -462.95357691362256   -8.72888e-10   3.39194e-08 DIIS
   @DF-RHF iter  13:  -462.95357691375682   -1.34264e-10   1.53525e-08 DIIS
   @DF-RHF iter  14:  -462.95357691378001   -2.31921e-11   4.59393e-09 DIIS
   @DF-RHF iter  15:  -462.95357691377984    1.70530e-13   1.55739e-09 DIIS
   @DF-RHF iter  16:  -462.95357691378075   -9.09495e-13   6.83595e-10 DIIS
   @DF-RHF iter  17:  -462.95357691378069    5.68434e-14   3.33425e-10 DIIS
   @DF-RHF iter  18:  -462.95357691378024    4.54747e-13   1.44299e-10 DIIS
   @DF-RHF iter  19:  -462.95357691378132   -1.08002e-12   7.25539e-11 DIIS
  Energy and wave function converged.


  ==> Post-Iterations <==

    Orbital Energies [Eh]
    ---------------------

    Doubly Occupied:                                                      

       1A    -11.498345     2A    -11.434376     3A    -11.433833  
       4A    -11.432132     5A    -11.421256     6A    -11.406052  
       7A    -11.405579     8A    -11.401593     9A    -11.401146  
      10A    -11.378799    11A    -11.376484    12A    -11.372925  
      13A     -1.347130    14A     -1.302486    15A     -1.210027  
      16A     -1.191243    17A     -1.173209    18A     -1.112831  
      19A     -1.054717    20A     -1.001155    21A     -0.996359  
      22A     -0.941363    23A     -0.900004    24A     -0.866680  
      25A     -0.826560    26A     -0.810043    27A     -0.784599  
      28A     -0.772824    29A     -0.760414    30A     -0.738505  
      31A     -0.720556    32A     -0.703908    33A     -0.696358  
      34A     -0.681210    35A     -0.667929    36A     -0.659318  
      37A     -0.648901    38A     -0.634226    39A     -0.628231  
      40A     -0.615540    41A     -0.610285    42A     -0.515832  
      43A     -0.500911  

    Virtual:                                                              

      44A     -0.150909    45A     -0.025165    46A      0.008163  
      47A      0.032532    48A      0.055056    49A      0.061756  
      50A      0.071578    51A      0.089482    52A      0.098609  
      53A      0.117734    54A      0.120079    55A      0.126544  
      56A      0.136450    57A      0.143334    58A      0.153113  
      59A      0.163780    60A      0.168464    61A      0.183532  
      62A      0.190520    63A      0.194870    64A      0.219444  
      65A      0.232383    66A      0.258327    67A      0.262086  
      68A      0.286779    69A      0.291837    70A      0.306549  
      71A      0.331650    72A      0.351580    73A      0.359845  
      74A      0.435640    75A      0.437936    76A      0.451054  
      77A      0.460149    78A      0.479995    79A      0.494482  
      80A      0.519200    81A      0.521967    82A      0.539799  
      83A      0.546579    84A      0.560509    85A      0.563562  
      86A      0.570646    87A      0.574123    88A      0.583760  
      89A      0.588604    90A      0.591416    91A      0.610331  
      92A      0.627706    93A      0.651557    94A      0.672144  
      95A      0.682476    96A      0.688213    97A      0.694864  
      98A      0.702963    99A      0.717317   100A      0.720277  
     101A      0.723686   102A      0.731938   103A      0.737491  
     104A      0.743643   105A      0.748146   106A      0.755599  
     107A      0.762093   108A      0.772725   109A      0.773757  
     110A      0.782427   111A      0.786985   112A      0.788685  
     113A      0.803523   114A      0.810188   115A      0.818248  
     116A      0.832125   117A      0.853573   118A      0.874572  
     119A      0.882399   120A      0.912397   121A      0.955607  
     122A      0.961740   123A      0.977208   124A      0.989542  
     125A      1.001357   126A      1.010987   127A      1.025028  
     128A      1.039635   129A      1.051724   130A      1.068661  
     131A      1.109044   132A      1.129472   133A      1.131760  
     134A      1.139173   135A      1.143870   136A      1.184202  
     137A      1.220452   138A      1.222497   139A      1.264718  
     140A      1.286522   141A      1.310904   142A      1.327116  
     143A      1.340408   144A      1.377367   145A      1.394928  
     146A      1.406660   147A      1.412567   148A      1.434648  
     149A      1.480180   150A      1.530359   151A      1.546661  
     152A      1.561059   153A      1.575808   154A      1.582640  
     155A      1.587740   156A      1.601594   157A      1.608683  
     158A      1.630175   159A      1.644014   160A      1.672125  
     161A      1.686091   162A      1.696659   163A      1.699260  
     164A      1.703712   165A      1.711623   166A      1.716371  
     167A      1.734061   168A      1.743639   169A      1.754628  
     170A      1.763193   171A      1.778749   172A      1.783025  
     173A      1.788954   174A      1.796672   175A      1.808351  
     176A      1.822509   177A      1.826313   178A      1.828969  
     179A      1.844423   180A      1.853281   181A      1.867428  
     182A      1.885388   183A      1.894565   184A      1.903191  
     185A      1.908141   186A      1.922527   187A      1.932359  
     188A      1.949221   189A      1.962089   190A      1.978212  
     191A      1.984108   192A      1.989886   193A      1.997058  
     194A      2.017279   195A      2.045897   196A      2.056024  
     197A      2.061658   198A      2.072859   199A      2.088413  
     200A      2.090550   201A      2.097938   202A      2.125800  
     203A      2.137591   204A      2.160618   205A      2.191664  
     206A      2.209038   207A      2.220374   208A      2.230670  
     209A      2.276013   210A      2.284870   211A      2.299699  
     212A      2.323444   213A      2.328911   214A      2.351876  
     215A      2.357594   216A      2.386622   217A      2.409858  
     218A      2.440013   219A      2.465873   220A      2.502556  
     221A      2.530933   222A      2.553361   223A      2.567422  
     224A      2.590239   225A      2.604782   226A      2.611978  
     227A      2.622544   228A      2.627013   229A      2.690246  
     230A      2.701878   231A      2.737111   232A      2.764692  
     233A      2.782944   234A      2.793947   235A      2.838022  
     236A      2.845122   237A      2.879437   238A      2.899086  
     239A      2.912414   240A      3.007264   241A      3.010232  
     242A      3.130019   243A      3.745759  

    Final Occupation by Irrep:
              A 
    DOCC [    43 ]

  @DF-RHF Final Energy:  -462.95357691378132

   => Energetics <=

    Nuclear Repulsion Energy =            668.6980432647889074
    One-Electron Energy =               -1937.2314929621045394
    Two-Electron Energy =                 805.5798727835342561
    Total Energy =                       -462.9535769137812622

Computation Completed


Properties will be evaluated at   0.000000,   0.000000,   0.000000 [a0]

Properties computed using the SCF density matrix

  Nuclear Dipole Moment: [e a0]
     X:     7.6978      Y:     3.6394      Z:    -3.9790

  Electronic Dipole Moment: [e a0]
     X:    -7.9730      Y:    -3.6290      Z:     4.1070

  Dipole Moment: [e a0]
     X:    -0.2752      Y:     0.0104      Z:     0.1280     Total:     0.3037

  Dipole Moment: [D]
     X:    -0.6995      Y:     0.0264      Z:     0.3253     Total:     0.7719


*** tstop() called on skystd01.palmetto.clemson.edu at Thu Dec 30 19:53:30 2021
Module time:
	user time   =      14.91 seconds =       0.25 minutes
	system time =       0.63 seconds =       0.01 minutes
	total time  =         15 seconds =       0.25 minutes
Total time:
	user time   =     170.02 seconds =       2.83 minutes
	system time =       8.24 seconds =       0.14 minutes
	total time  =        179 seconds =       2.98 minutes

*** tstart() called on skystd01.palmetto.clemson.edu
*** at Thu Dec 30 19:53:30 2021


  //>>>>>>>>>>>>>>>>>>>>>>>>>>>>>>>>>>>//
  //               DFMP2               //
  //<<<<<<<<<<<<<<<<<<<<<<<<<<<<<<<<<<<//

   => Loading Basis Set <=

    Name: (CC-PVDZ AUX)
    Role: RIFIT
    Keyword: DF_BASIS_MP2
    atoms 1-6, 14-19  entry C          line   159 file /home/maxbuskirk/.conda/envs/psifour/share/psi4/basis/cc-pvdz-ri.gbs 
    atoms 7-13, 20-27 entry H          line    19 file /home/maxbuskirk/.conda/envs/psifour/share/psi4/basis/cc-pvdz-ri.gbs 

	 --------------------------------------------------------
	                          DF-MP2                         
	      2nd-Order Density-Fitted Moller-Plesset Theory     
	              RMP2 Wavefunction,   1 Threads             
	                                                         
	        Rob Parrish, Justin Turney, Andy Simmonett,      
	           Ed Hohenstein, and C. David Sherrill          
	 --------------------------------------------------------

   => Auxiliary Basis Set <=

  Basis Set: (CC-PVDZ AUX)
    Blend: CC-PVDZ-RI
    Number of shells: 306
    Number of basis functions: 882
    Number of Cartesian functions: 1017
    Spherical Harmonics?: true
    Max angular momentum: 3

	 --------------------------------------------------------
	                 NBF =   243, NAUX =   882
	 --------------------------------------------------------
	   CLASS    FOCC     OCC    AOCC    AVIR     VIR    FVIR
	   PAIRS       0      43      43     200     200       0
	 --------------------------------------------------------

  DFHelper Memory: AOs need 0.495 GiB; user supplied 22.352 GiB. Using in-core AOs.


         ------------------------------------------------------------
                                     CPHF                           
                                  Rob Parrish                       
         ------------------------------------------------------------

  ==> Geometry <==

    Molecular point group: c1
    Full point group: C1

    Geometry (in Angstrom), charge = 1, multiplicity = 1:

       Center              X                  Y                   Z               Mass       
    ------------   -----------------  -----------------  -----------------  -----------------
         C            1.565710645266    -0.456899824288    -2.136419925689    12.000000000000
         C            0.553274315716     0.576328382388    -0.048154361865    12.000000000000
         C            0.702643314844     2.024201190212     0.272479541042    12.000000000000
         C            2.227540007067     2.179104862720     0.453864290882    12.000000000000
         C            2.771823255141     1.294482131140    -0.672900596269    12.000000000000
         C            1.810558383877     0.083357540687    -0.709202972167    12.000000000000
         H            2.208439088510    -0.736156251097    -0.076937327002     1.007825032230
         H            3.818148709447     0.989261374086    -0.530626787906     1.007825032230
         H            2.707944821785     1.833747722569    -1.633942182768     1.007825032230
         H            2.524206556165     1.789343551483     1.441936900684     1.007825032230
         H            2.547031440653     3.228517991296     0.389843896975     1.007825032230
         H            0.074587506087     2.383735535346     1.098077561409     1.007825032230
         H            0.405625641042     2.570677752144    -0.650546896344     1.007825032230
         C           -0.579338789928    -0.218336874671     0.247324302668    12.000000000000
         C           -0.518146949552    -1.645686619613     0.141301911336    12.000000000000
         C           -1.643987719246    -2.411865077161     0.431955001786    12.000000000000
         C           -2.849214467837    -1.779414315916     0.805432650342    12.000000000000
         C           -2.928474017692    -0.375338575056     0.912053445054    12.000000000000
         C           -1.802012326180     0.404024921912     0.658737209629    12.000000000000
         H           -1.862927734747     1.492099135797     0.734799439581     1.007825032230
         H           -3.869133562161     0.098135973539     1.203717212859     1.007825032230
         H           -3.732894529790    -2.387595280886     1.023371992219     1.007825032230
         H           -1.595471510415    -3.502000671114     0.373705860382     1.007825032230
         H            0.422034071864    -2.135421735083    -0.122118168194     1.007825032230
         H            0.939124584645    -1.358854836419    -2.149574517225     1.007825032230
         H            2.540004755561    -0.698887776857    -2.589720882751     1.007825032230
         H            1.084519134047     0.315526820022    -2.756419236831     1.007825032230

  Nuclear repulsion =  668.698043264788907
  Reference energy  = -462.953576913781319

  ==> Basis Set <==

  Basis Set: CC-PVDZ
    Blend: CC-PVDZ
    Number of shells: 117
    Number of basis functions: 243
    Number of Cartesian functions: 255
    Spherical Harmonics?: true
    Max angular momentum: 2

  ==> CGRSolver (by Rob Parrish) <==

   Number of roots    =         1
   Preconditioning    =    JACOBI
   Convergence cutoff =     1E-06
   Maximum iterations =       100

  ==> CPHFRHamiltonian (by Rob Parrish) <== 

  ==> MemDFJK: Density-Fitted J/K Matrices <==

    J tasked:                   Yes
    K tasked:                   Yes
    wK tasked:                   No
    OpenMP threads:               1
    Memory [MiB]:             22888
    Algorithm:                 Core
    Schwarz Cutoff:           1E-12
    Mask sparsity (%):       8.9620
    Fitting Condition:        1E-10

   => Auxiliary Basis Set <=

  Basis Set: (CC-PVDZ AUX)
    Blend: CC-PVDZ-JKFIT
    Number of shells: 423
    Number of basis functions: 1185
    Number of Cartesian functions: 1347
    Spherical Harmonics?: true
    Max angular momentum: 3

  ==> CPHF Iterations <==

  => Iterations <=

             Iter  Converged  Remaining    Residual
  CGR           1          0          1   1.216E-01
  CGR           2          0          1   4.825E-02
  CGR           3          0          1   2.632E-02
  CGR           4          0          1   8.389E-03
  CGR           5          0          1   4.401E-03
  CGR           6          0          1   1.829E-03
  CGR           7          0          1   5.818E-04
  CGR           8          0          1   2.058E-04
  CGR           9          0          1   6.878E-05
  CGR          10          0          1   1.480E-05
  CGR          11          0          1   5.572E-06
  CGR          12          0          1   2.165E-06
  CGR          13          1          0   9.086E-07

    CGRSolver converged.

  ==> DFCorrGrad: Density-Fitted Correlated Gradients <==

    OpenMP threads:              1
    Integrals threads:           1
    Memory [GiB]:           22.352
    Schwarz Cutoff:          0E+00
    Fitting Condition:       1E-10

   => Auxiliary Basis Set <=

  Basis Set: (CC-PVDZ AUX)
    Blend: CC-PVDZ-JKFIT
    Number of shells: 423
    Number of basis functions: 1185
    Number of Cartesian functions: 1347
    Spherical Harmonics?: true
    Max angular momentum: 3

	-----------------------------------------------------------
	 ==================> DF-MP2 Energies <==================== 
	-----------------------------------------------------------
	 Reference Energy          =    -462.9535769137813190 [Eh]
	 Singles Energy            =      -0.0000000000000000 [Eh]
	 Same-Spin Energy          =      -0.4154198289996683 [Eh]
	 Opposite-Spin Energy      =      -1.2094422409634893 [Eh]
	 Correlation Energy        =      -1.6248620699631577 [Eh]
	 Total Energy              =    -464.5784389837444905 [Eh]
	-----------------------------------------------------------
	 ================> DF-SCS-MP2 Energies <================== 
	-----------------------------------------------------------
	 SCS Same-Spin Scale       =       0.3333333333333333 [-]
	 SCS Opposite-Spin Scale   =       1.2000000000000000 [-]
	 SCS Same-Spin Energy      =      -0.1384732763332228 [Eh]
	 SCS Opposite-Spin Energy  =      -1.4513306891561870 [Eh]
	 SCS Correlation Energy    =      -1.5898039654894098 [Eh]
	 SCS Total Energy          =    -464.5433808792707282 [Eh]
	-----------------------------------------------------------


  -Total Gradient:
[...]
      5   C                0.01 -0.00  0.01    0.02 -0.01  0.02   -0.00  0.00 -0.00   
      6   C               -0.00  0.00  0.00    0.00 -0.00  0.00   -0.00  0.00 -0.00   
      7   H               -0.00  0.00  0.00   -0.00  0.01 -0.00    0.02 -0.03  0.03   
      8   H               -0.07  0.02 -0.01   -0.24  0.07 -0.03    0.04 -0.01  0.01   
      9   H               -0.00  0.03 -0.05   -0.01  0.08 -0.15    0.00 -0.02  0.03   
     10   H               -0.02  0.02 -0.06   -0.13  0.16 -0.41    0.01 -0.01  0.03   
     11   H                0.07  0.22 -0.01    0.23  0.75 -0.05   -0.02 -0.05  0.00   
     12   H               -0.54  0.30  0.71    0.14 -0.08 -0.18   -0.00  0.00  0.00   
     13   H                0.05 -0.09  0.13   -0.02  0.04 -0.06    0.00 -0.00  0.00   
     14   C                0.00 -0.00 -0.00   -0.00  0.00  0.00    0.00  0.00  0.00   
     15   C               -0.00 -0.00 -0.00    0.00  0.00 -0.00    0.00  0.00 -0.00   
     16   C                0.00 -0.00  0.00   -0.00  0.00 -0.00   -0.00  0.00  0.00   
     17   C               -0.00  0.00  0.00    0.00  0.00 -0.00    0.00 -0.00 -0.00   
     18   C                0.00 -0.00 -0.00   -0.00  0.00  0.00    0.00  0.00 -0.00   
     19   C                0.00  0.01  0.00   -0.00 -0.00 -0.00   -0.00 -0.00  0.00   
     20   H                0.00 -0.07 -0.01   -0.00  0.02  0.00    0.00  0.00  0.00   
     21   H               -0.01  0.00  0.00    0.00 -0.00 -0.00   -0.00  0.00  0.00   
     22   H                0.00  0.00 -0.00   -0.00 -0.00  0.00   -0.00 -0.00 -0.00   
     23   H               -0.00 -0.00  0.00    0.00 -0.00 -0.00    0.00 -0.00 -0.00   
     24   H               -0.00  0.00  0.00   -0.00  0.00  0.00   -0.00  0.00 -0.00   
     25   H                0.00  0.00 -0.00   -0.02 -0.02 -0.00   -0.08 -0.09 -0.00   
     26   H                0.01 -0.00 -0.00    0.04 -0.01 -0.02    0.60 -0.14 -0.28   
     27   H                0.00 -0.01  0.01    0.03 -0.04  0.03    0.31 -0.50  0.40   

  Vibration                       76                  77                  78          
  Freq [cm^-1]                3219.0912           3239.3451           3254.2416       
  Irrep                           A                   A                   A           
  Reduced mass [u]              1.1039              1.0889              1.0889        
  Force const [mDyne/A]         6.7400              6.7322              6.7940        
  Turning point v=0 [a0]        0.1841              0.1848              0.1843        
  RMS dev v=0 [a0 u^1/2]        0.1368              0.1363              0.1360        
  Char temp [K]               4631.5555           4660.6963           4682.1291       
  ----------------------------------------------------------------------------------
      1   C               -0.06 -0.06  0.03   -0.00 -0.00  0.00   -0.00 -0.00  0.00   
      2   C               -0.00 -0.00 -0.00   -0.00 -0.00  0.00    0.00 -0.00 -0.00   
      3   C               -0.00  0.00  0.00   -0.00  0.00  0.00    0.00 -0.00 -0.00   
      4   C               -0.00 -0.00  0.00    0.00 -0.00  0.00   -0.00  0.00 -0.00   
      5   C                0.00 -0.00  0.00    0.00 -0.00  0.00   -0.00 -0.00  0.00   
      6   C                0.00 -0.00  0.00    0.00 -0.00  0.00    0.00 -0.00  0.00   
      7   H               -0.01  0.01 -0.01   -0.00  0.00 -0.00   -0.00  0.00 -0.00   
      8   H               -0.02  0.01 -0.00   -0.00  0.00 -0.00   -0.00  0.00  0.00   
      9   H               -0.00  0.01 -0.02    0.00  0.00 -0.00    0.00  0.00 -0.00   
     10   H               -0.00  0.00 -0.01   -0.00  0.00 -0.00    0.00 -0.00  0.00   
     11   H                0.00  0.01 -0.00    0.00  0.00 -0.00   -0.00 -0.00  0.00   
     12   H                0.00 -0.00 -0.01    0.01 -0.00 -0.01   -0.02  0.01  0.03   
     13   H               -0.00  0.00 -0.00   -0.00  0.00 -0.00    0.00 -0.00  0.00   
     14   C                0.00 -0.00  0.00    0.00  0.00 -0.00   -0.00  0.00  0.00   
     15   C               -0.01  0.00  0.00    0.01 -0.01 -0.00    0.03 -0.02 -0.01   
     16   C                0.00 -0.00 -0.00    0.00  0.03  0.00   -0.00  0.04  0.00   
     17   C                0.00  0.00 -0.00   -0.06 -0.04  0.01    0.00 -0.00 -0.00   
     18   C               -0.00  0.00  0.00    0.02 -0.01 -0.01   -0.04  0.02  0.01   
     19   C                0.00 -0.00 -0.00   -0.00  0.01  0.00    0.00 -0.04 -0.00   
     20   H               -0.00  0.00  0.00    0.01 -0.14 -0.01   -0.03  0.52  0.04   
     21   H                0.00 -0.00 -0.00   -0.28  0.14  0.09    0.43 -0.22 -0.13   
     22   H               -0.00 -0.00  0.00    0.70  0.48 -0.17    0.01  0.01 -0.00   
     23   H               -0.00  0.02  0.00    0.01 -0.32 -0.02    0.02 -0.49 -0.03   
     24   H                0.07 -0.04 -0.02   -0.12  0.06  0.03   -0.41  0.21  0.12   
     25   H                0.48  0.70 -0.00    0.01  0.02 -0.00    0.02  0.03 -0.00   
     26   H                0.39 -0.11 -0.17    0.01 -0.00 -0.00    0.01 -0.00 -0.01   
     27   H               -0.13  0.18 -0.14   -0.00  0.00 -0.00   -0.00  0.01 -0.01   

  Vibration                       79                  80                  81          
  Freq [cm^-1]                3256.2474           3268.0572           3270.0922       
  Irrep                           A                   A                   A           
  Reduced mass [u]              1.0921              1.0974              1.1005        
  Force const [mDyne/A]         6.8224              6.9057              6.9338        
  Turning point v=0 [a0]        0.1840              0.1832              0.1829        
  RMS dev v=0 [a0 u^1/2]        0.1360              0.1357              0.1357        
  Char temp [K]               4685.0150           4702.0067           4704.9346       
  ----------------------------------------------------------------------------------
      1   C                0.00  0.00 -0.00   -0.00 -0.00  0.00   -0.00 -0.00  0.00   
      2   C               -0.00  0.00  0.00    0.00 -0.00 -0.00   -0.00 -0.00  0.00   
      3   C                0.00 -0.00 -0.00    0.00 -0.00 -0.00   -0.00  0.00  0.00   
      4   C               -0.00  0.00 -0.00   -0.00  0.00 -0.00    0.00 -0.00  0.00   
      5   C               -0.00 -0.00 -0.00   -0.00 -0.00  0.00    0.00  0.00  0.00   
      6   C               -0.00  0.00 -0.00    0.00 -0.00  0.00    0.00 -0.00  0.00   
      7   H                0.00 -0.00  0.00   -0.00  0.00 -0.00   -0.00  0.00 -0.00   
      8   H                0.00 -0.00  0.00   -0.00  0.00  0.00   -0.00 -0.00 -0.00   
      9   H               -0.00 -0.00  0.00    0.00  0.00 -0.00    0.00  0.00 -0.00   
     10   H                0.00 -0.00  0.00    0.00 -0.00  0.00   -0.00  0.00 -0.00   
     11   H               -0.00 -0.00  0.00   -0.00 -0.00  0.00    0.00  0.00 -0.00   
     12   H               -0.02  0.01  0.03   -0.02  0.01  0.02    0.01 -0.01 -0.02   
     13   H                0.00 -0.00  0.01    0.00 -0.00  0.00   -0.00  0.00 -0.00   
     14   C               -0.00 -0.00  0.00   -0.00  0.00  0.00    0.00  0.00 -0.00   
     15   C               -0.04  0.02  0.01    0.04 -0.02 -0.01    0.03 -0.02 -0.01   
     16   C                0.00 -0.03 -0.00   -0.00 -0.05 -0.00    0.00 -0.05 -0.00   
     17   C               -0.03 -0.02  0.01   -0.00  0.00  0.00   -0.02 -0.01  0.00   
     18   C               -0.02  0.01  0.01    0.04 -0.02 -0.01   -0.04  0.02  0.01   
     19   C                0.00 -0.05 -0.00   -0.00 -0.04 -0.00    0.00  0.04  0.00   
     20   H               -0.03  0.54  0.04   -0.02  0.47  0.03    0.02 -0.42 -0.03   
     21   H                0.26 -0.13 -0.08   -0.43  0.22  0.13    0.47 -0.24 -0.15   
     22   H                0.34  0.23 -0.08    0.00 -0.00 -0.00    0.21  0.14 -0.05   
     23   H               -0.02  0.35  0.02   -0.02  0.50  0.03   -0.02  0.52  0.03   
     24   H                0.47 -0.24 -0.14   -0.44  0.22  0.13   -0.36  0.18  0.10   
     25   H               -0.03 -0.04  0.00    0.02  0.02 -0.00    0.01  0.02 -0.00   
     26   H               -0.02  0.00  0.01    0.01 -0.00 -0.00    0.01 -0.00 -0.00   
     27   H                0.00 -0.01  0.01   -0.00  0.00 -0.00   -0.00  0.00 -0.00   

  ==> Thermochemistry Components <==

  Entropy, S
    Electronic S            0.000 [cal/(mol K)]        0.000 [J/(mol K)]       0.00000000 [mEh/K] (multiplicity = 1)
    Translational S        41.102 [cal/(mol K)]      171.973 [J/(mol K)]       0.06550099 [mEh/K] (mol. weight = 159.1174 [u], P = 101325.00 [Pa])
    Rotational S           30.671 [cal/(mol K)]      128.329 [J/(mol K)]       0.04887788 [mEh/K] (symmetry no. = 1)
    Vibrational S          29.933 [cal/(mol K)]      125.239 [J/(mol K)]       0.04770105 [mEh/K]
  Total S                 101.707 [cal/(mol K)]      425.541 [J/(mol K)]       0.16207992 [mEh/K]
  Correction S              0.000 [cal/(mol K)]        0.000 [J/(mol K)]       0.00000000 [mEh/K]

  Constant volume heat capacity, Cv
    Electronic Cv           0.000 [cal/(mol K)]        0.000 [J/(mol K)]       0.00000000 [mEh/K]
    Translational Cv        2.981 [cal/(mol K)]       12.472 [J/(mol K)]       0.00475022 [mEh/K]
    Rotational Cv           2.981 [cal/(mol K)]       12.472 [J/(mol K)]       0.00475022 [mEh/K]
    Vibrational Cv         37.091 [cal/(mol K)]      155.187 [J/(mol K)]       0.05910754 [mEh/K]
  Total Cv                 43.052 [cal/(mol K)]      180.130 [J/(mol K)]       0.06860797 [mEh/K]
  Correction Cv             0.000 [cal/(mol K)]        0.000 [J/(mol K)]       0.00000000 [mEh/K]

  Constant pressure heat capacity, Cp
    Electronic Cp           0.000 [cal/(mol K)]        0.000 [J/(mol K)]       0.00000000 [mEh/K]
    Translational Cp        4.968 [cal/(mol K)]       20.786 [J/(mol K)]       0.00791703 [mEh/K]
    Rotational Cp           2.981 [cal/(mol K)]       12.472 [J/(mol K)]       0.00475022 [mEh/K]
    Vibrational Cp         37.091 [cal/(mol K)]      155.187 [J/(mol K)]       0.05910754 [mEh/K]
  Total Cp                 45.039 [cal/(mol K)]      188.445 [J/(mol K)]       0.07177479 [mEh/K]
  Correction Cp             0.000 [cal/(mol K)]        0.000 [J/(mol K)]       0.00000000 [mEh/K]

  ==> Thermochemistry Energy Analysis <==

  Raw electronic energy, E0
  Total E0, Electronic energy at well bottom at 0 [K]                 -464.57843978 [Eh]

  Zero-point energy, ZPE_vib = Sum_i nu_i / 2
    Electronic ZPE          0.000 [kcal/mol]        0.000 [kJ/mol]       0.00000000 [Eh]
    Translational ZPE       0.000 [kcal/mol]        0.000 [kJ/mol]       0.00000000 [Eh]
    Rotational ZPE          0.000 [kcal/mol]        0.000 [kJ/mol]       0.00000000 [Eh]
    Vibrational ZPE       150.366 [kcal/mol]      629.131 [kJ/mol]       0.23962340 [Eh]       52591.258 [cm^-1]
  Correction ZPE          150.366 [kcal/mol]      629.131 [kJ/mol]       0.23962340 [Eh]       52591.258 [cm^-1]
  Total ZPE, Electronic energy at 0 [K]                               -464.33881637 [Eh]

  Thermal Energy, E (includes ZPE)
    Electronic E            0.000 [kcal/mol]        0.000 [kJ/mol]       0.00000000 [Eh]
    Translational E         0.889 [kcal/mol]        3.718 [kJ/mol]       0.00141628 [Eh]
    Rotational E            0.889 [kcal/mol]        3.718 [kJ/mol]       0.00141628 [Eh]
    Vibrational E         155.380 [kcal/mol]      650.111 [kJ/mol]       0.24761411 [Eh]
  Correction E            157.158 [kcal/mol]      657.548 [kJ/mol]       0.25044666 [Eh]
  Total E, Electronic energy at  298.15 [K]                           -464.32799311 [Eh]

  Enthalpy, H_trans = E_trans + k_B * T
    Electronic H            0.000 [kcal/mol]        0.000 [kJ/mol]       0.00000000 [Eh]
    Translational H         1.481 [kcal/mol]        6.197 [kJ/mol]       0.00236046 [Eh]
    Rotational H            0.889 [kcal/mol]        3.718 [kJ/mol]       0.00141628 [Eh]
    Vibrational H         155.380 [kcal/mol]      650.111 [kJ/mol]       0.24761411 [Eh]
  Correction H            157.750 [kcal/mol]      660.027 [kJ/mol]       0.25139085 [Eh]
  Total H, Enthalpy at  298.15 [K]                                    -464.32704893 [Eh]

  Gibbs free energy, G = H - T * S
    Electronic G            0.000 [kcal/mol]        0.000 [kJ/mol]       0.00000000 [Eh]
    Translational G       -10.773 [kcal/mol]      -45.076 [kJ/mol]      -0.01716866 [Eh]
    Rotational G           -8.256 [kcal/mol]      -34.543 [kJ/mol]      -0.01315666 [Eh]
    Vibrational G         146.456 [kcal/mol]      612.771 [kJ/mol]       0.23339204 [Eh]
  Correction G            127.426 [kcal/mol]      533.152 [kJ/mol]       0.20306672 [Eh]
  Total G, Free enthalpy at  298.15 [K]                               -464.37537305 [Eh]


Properties will be evaluated at   0.000000,   0.000000,   0.000000 [a0]
OEProp: No title given, name of density matrix used for the following properties is 'DF-MP2 relaxed density'
  Mulliken Charges: (a.u.)
   Center  Symbol    Alpha    Beta     Spin     Total
       1     C     3.00729  3.00729  0.00000 -0.01458
       2     C     2.99737  2.99737  0.00000  0.00526
       3     C     3.01060  3.01060  0.00000 -0.02120
       4     C     3.02431  3.02431  0.00000 -0.04862
       5     C     3.00644  3.00644  0.00000 -0.01288
       6     C     3.10553  3.10553  0.00000 -0.21107
       7     H     0.44985  0.44985  0.00000  0.10030
       8     H     0.45950  0.45950  0.00000  0.08100
       9     H     0.46691  0.46691  0.00000  0.06617
      10     H     0.46339  0.46339  0.00000  0.07322
      11     H     0.45837  0.45837  0.00000  0.08326
      12     H     0.45120  0.45120  0.00000  0.09759
      13     H     0.44079  0.44079  0.00000  0.11841
      14     C     3.02132  3.02132  0.00000 -0.04264
      15     C     2.99575  2.99575  0.00000  0.00851
      16     C     2.98184  2.98184  0.00000  0.03633
      17     C     2.98293  2.98293  0.00000  0.03413
      18     C     2.98233  2.98233  0.00000  0.03534
      19     C     2.99351  2.99351  0.00000  0.01297
      20     H     0.46736  0.46736  0.00000  0.06529
      21     H     0.46009  0.46009  0.00000  0.07981
      22     H     0.45728  0.45728  0.00000  0.08544
      23     H     0.46044  0.46044  0.00000  0.07912
      24     H     0.46633  0.46633  0.00000  0.06734
      25     H     0.46918  0.46918  0.00000  0.06163
      26     H     0.45395  0.45395  0.00000  0.09211
      27     H     0.46613  0.46613  0.00000  0.06774

   Total alpha = 43.00000, Total beta = 43.00000, Total charge =  1.00000

    Molecular point group: c1
    Full point group: C1

    Geometry (in Angstrom), charge = 1, multiplicity = 1:

       Center              X                  Y                   Z               Mass       
    ------------   -----------------  -----------------  -----------------  -----------------
         C            1.566400464306    -0.456857087399    -2.136496602398    12.000000000000
         C            0.553214756006     0.576323785901    -0.048160880298    12.000000000000
         C            0.702612388406     2.024186051601     0.272507281702    12.000000000000
         C            2.227518145306     2.179068299501     0.453834100302    12.000000000000
         C            2.771745899206     1.294471134201    -0.672977660098    12.000000000000
         C            1.810466544606     0.083357875101    -0.709274553998    12.000000000000
         H            2.208364259506    -0.736177810899    -0.077047995198     1.007825032230
         H            3.818073882406     0.989235180201    -0.530755072198     1.007825032230
         H            2.707834025206     1.833764199301    -1.634001605398     1.007825032230
         H            2.524220843206     1.789276262201     1.441883733302     1.007825032230
         H            2.547018231906     3.228479782201     0.389829915302     1.007825032230
         H            0.074594142506     2.383704125001     1.098140959702     1.007825032230
         H            0.405562903606     2.570691530101    -0.650491796498     1.007825032230
         C           -0.579394817794    -0.218337549099     0.247341868302    12.000000000000
         C           -0.518222630094    -1.645684994299     0.141277194002    12.000000000000
         C           -1.644059759094    -2.411859467999     0.431954886102    12.000000000000
         C           -2.849264469594    -1.779406180699     0.805499361502    12.000000000000
         C           -2.928504592194    -0.375332562299     0.912162528002    12.000000000000
         C           -1.802044875694     0.404025903401     0.658822033002    12.000000000000
         H           -1.862945497194     1.492098650001     0.734917077902     1.007825032230
         H           -3.869147145594     0.098143953101     1.203877891602     1.007825032230
         H           -3.732942163194    -2.387583734499     1.023457823802     1.007825032230
         H           -1.595557632294    -3.501993958099     0.373673378402     1.007825032230
         H            0.421942378606    -2.135422858699    -0.122194915098     1.007825032230
         H            0.938958465506    -1.358804997099    -2.149650721898     1.007825032230
         H            2.539827752106    -0.698842853399    -2.589844040998     1.007825032230
         H            1.084346219606     0.315592012601    -2.756454704298     1.007825032230



  Variable Map:
  ----------------------------------------------------------------------------
  "CURRENT CORRELATION ENERGY"           =>      -1.624861053048
  "CURRENT DIPOLE X"                     =>      -0.700040510536
  "CURRENT DIPOLE Y"                     =>       0.026202093120
  "CURRENT DIPOLE Z"                     =>       0.325735743136
  "CURRENT ENERGY"                       =>    -464.578439776466
  "CURRENT REFERENCE ENERGY"             =>    -462.953578723418
  "CUSTOM SCS-MP2 CORRELATION ENERGY"    =>      -1.589803408495
  "CUSTOM SCS-MP2 TOTAL ENERGY"          =>    -464.543382131913
  "ENTHALPY"                             =>    -464.327048927588
  "ENTHALPY CORRECTION"                  =>       0.251390848879
  "GIBBS FREE ENERGY"                    =>    -464.375373054799
  "GIBBS FREE ENERGY CORRECTION"         =>       0.203066721668
  "HF TOTAL ENERGY"                      =>    -462.953578723418
  "MP2 CORRELATION ENERGY"               =>      -1.624861053048
  "MP2 DOUBLES ENERGY"                   =>      -1.624861053048
  "MP2 OPPOSITE-SPIN CORRELATION ENERGY" =>      -1.209441989399
  "MP2 SAME-SPIN CORRELATION ENERGY"     =>      -0.415419063649
  "MP2 SINGLES ENERGY"                   =>      -0.000000000000
  "MP2 TOTAL ENERGY"                     =>    -464.578439776466
  "NUCLEAR REPULSION ENERGY"             =>     668.694949300838
  "ONE-ELECTRON ENERGY"                  =>   -1937.225177169319
  "PCM POLARIZATION ENERGY"              =>       0.000000000000
  "PE ENERGY"                            =>       0.000000000000
  "SCF DIPOLE X"                         =>      -0.700040510536
  "SCF DIPOLE Y"                         =>       0.026202093120
  "SCF DIPOLE Z"                         =>       0.325735743136
  "SCF ITERATION ENERGY"                 =>    -462.953578723418
  "SCF ITERATIONS"                       =>      19.000000000000
  "SCF TOTAL ENERGY"                     =>    -462.953578723418
  "SCS-MP2 CORRELATION ENERGY"           =>      -1.589803408495
  "SCS-MP2 TOTAL ENERGY"                 =>    -464.543382131913
  "THERMAL ENERGY"                       =>    -464.327993112136
  "THERMAL ENERGY CORRECTION"            =>       0.250446664331
  "TWO-ELECTRON ENERGY"                  =>     805.576649145062
  "ZERO K ENTHALPY"                      =>    -464.338816373785
  "ZPVE"                                 =>       0.239623402682



    Psi4 stopped on: Thursday, 30 December 2021 11:15PM
    Psi4 wall time for execution: 3:25:07.24

*** Psi4 exiting successfully. Buy a developer a beer!
