
    -----------------------------------------------------------------------
          Psi4: An Open-Source Ab Initio Electronic Structure Package
                               Psi4 1.4 release

                         Git: Rev {HEAD} 9485035 


    D. G. A. Smith, L. A. Burns, A. C. Simmonett, R. M. Parrish,
    M. C. Schieber, R. Galvelis, P. Kraus, H. Kruse, R. Di Remigio,
    A. Alenaizan, A. M. James, S. Lehtola, J. P. Misiewicz, M. Scheurer,
    R. A. Shaw, J. B. Schriber, Y. Xie, Z. L. Glick, D. A. Sirianni,
    J. S. O'Brien, J. M. Waldrop, A. Kumar, E. G. Hohenstein,
    B. P. Pritchard, B. R. Brooks, H. F. Schaefer III, A. Yu. Sokolov,
    K. Patkowski, A. E. DePrince III, U. Bozkaya, R. A. King,
    F. A. Evangelista, J. M. Turney, T. D. Crawford, C. D. Sherrill,
    J. Chem. Phys. 152(18) 184108 (2020). https://doi.org/10.1063/5.0006002

                            Additional Code Authors
    E. T. Seidl, C. L. Janssen, E. F. Valeev, M. L. Leininger,
    J. F. Gonthier, R. M. Richard, H. R. McAlexander, M. Saitow, X. Wang,
    P. Verma, and M. H. Lechner

             Previous Authors, Complete List of Code Contributors,
                       and Citations for Specific Modules
    https://github.com/psi4/psi4/blob/master/codemeta.json
    https://github.com/psi4/psi4/graphs/contributors
    http://psicode.org/psi4manual/master/introduction.html#citing-psifour

    -----------------------------------------------------------------------


    Psi4 started on: Wednesday, 08 December 2021 08:34PM

    Process ID: 1192568
    Host:       skystd01.palmetto.clemson.edu
    PSIDATADIR: /home/maxbuskirk/.conda/envs/psifour/share/psi4
    Memory:     500.0 MiB
    Threads:    1
    
  ==> Input File <==

--------------------------------------------------------------------------
molecule mol {
0 1
C 0.00000000 0.00000000 0.00000000
C -1.33160900 -0.52821100 0.39484800
C -1.43071100 -1.45269700 1.36587800
C -2.62792500 -1.93591800 1.73239500
C -3.74244100 -1.49412800 1.13010500
C -3.65384200 -0.56756700 0.16376000
C -2.45408900 -0.08753000 -0.19926200
H -2.39924400 0.68070000 -0.98910300
H -4.56915100 -0.19773500 -0.33032400
H -4.72851800 -1.88886800 1.43070300
H -2.69633900 -2.69630400 2.52975600
H -0.52149000 -1.82349700 1.86898600
C 0.80291000 0.82866100 0.99372200
C 2.05469100 -0.01352700 1.29254400
C 2.33965600 -0.73613400 -0.03532100
C 0.96570300 -0.98706800 -0.64018800
H 0.68568600 -2.02295000 -0.82494200
C 0.34304200 0.10457800 -1.46989700
H -0.39656500 -0.20546400 -2.20363900
H 0.96769800 0.93522300 -1.78708200
H 2.89906800 -1.68689100 0.13106700
H 2.94532000 -0.09317900 -0.71653600
H 1.81957400 -0.76486100 2.08426400
H 2.91658800 0.60476700 1.63908400
H 0.22390900 1.05449200 1.91967800
H 1.08828700 1.79961000 0.52491500
}

set scf_type df
set basis cc-pVTZ
set reference rhf

mol.update_geometry()
mol.symmetrize(1e-3)

e, wfn = optimize('ccsd', return_wfn=True)
oeprop(wfn, "MULLIKEN_CHARGES")
mol.print_out()
print_variables()
--------------------------------------------------------------------------

Scratch directory: /local_scratch/pbs.4122842.pbs02/
gradient() will perform analytic gradient computation.

*** tstart() called on skystd01.palmetto.clemson.edu
*** at Wed Dec  8 20:34:31 2021

   => Loading Basis Set <=

    Name: CC-PVTZ
    Role: ORBITAL
    Keyword: BASIS
    atoms 1-7, 13-16, 18  entry C          line   186 file /home/maxbuskirk/.conda/envs/psifour/share/psi4/basis/cc-pvtz.gbs 
    atoms 8-12, 17, 19-26 entry H          line    23 file /home/maxbuskirk/.conda/envs/psifour/share/psi4/basis/cc-pvtz.gbs 


         ---------------------------------------------------------
                                   SCF
               by Justin Turney, Rob Parrish, Andy Simmonett
                          and Daniel G. A. Smith
                              RHF Reference
                        1 Threads,    500 MiB Core
         ---------------------------------------------------------

  ==> Geometry <==

    Molecular point group: c1
    Full point group: C1

    Geometry (in Angstrom), charge = 0, multiplicity = 1:

       Center              X                  Y                   Z               Mass       
    ------------   -----------------  -----------------  -----------------  -----------------
         C            0.674180460717     0.561564973389    -0.392519782418    12.000000000000
         C           -0.657428539283     0.033353973389     0.002328217582    12.000000000000
         C           -0.756530539283    -0.891132026611     0.973358217582    12.000000000000
         C           -1.953744539283    -1.374353026611     1.339875217582    12.000000000000
         C           -3.068260539283    -0.932563026611     0.737585217582    12.000000000000
         C           -2.979661539283    -0.006002026611    -0.228759782418    12.000000000000
         C           -1.779908539283     0.474034973389    -0.591781782418    12.000000000000
         H           -1.725063539283     1.242264973389    -1.381622782418     1.007825032230
         H           -3.894970539283     0.363829973389    -0.722843782418     1.007825032230
         H           -4.054337539283    -1.327303026611     1.038183217582     1.007825032230
         H           -2.022158539283    -2.134739026611     2.137236217582     1.007825032230
         H            0.152690460717    -1.261932026611     1.476466217582     1.007825032230
         C            1.477090460717     1.390225973389     0.601202217582    12.000000000000
         C            2.728871460717     0.548037973389     0.900024217582    12.000000000000
         C            3.013836460717    -0.174569026611    -0.427840782418    12.000000000000
         C            1.639883460717    -0.425503026611    -1.032707782418    12.000000000000
         H            1.359866460717    -1.461385026611    -1.217461782418     1.007825032230
         C            1.017222460717     0.666142973389    -1.862416782418    12.000000000000
         H            0.277615460717     0.356100973389    -2.596158782418     1.007825032230
         H            1.641878460717     1.496787973389    -2.179601782418     1.007825032230
         H            3.573248460717    -1.125326026611    -0.261452782418     1.007825032230
         H            3.619500460717     0.468385973389    -1.109055782418     1.007825032230
         H            2.493754460717    -0.203296026611     1.691744217582     1.007825032230
         H            3.590768460717     1.166331973389     1.246564217582     1.007825032230
         H            0.898089460717     1.616056973389     1.527158217582     1.007825032230
         H            1.762467460717     2.361174973389     0.132395217582     1.007825032230

  Running in c1 symmetry.

  Rotational constants: A =      0.07571  B =      0.02141  C =      0.01936 [cm^-1]
  Rotational constants: A =   2269.60782  B =    641.84797  C =    580.28171 [MHz]
  Nuclear repulsion =  680.105901532754501

  Charge       = 0
  Multiplicity = 1
  Electrons    = 86
  Nalpha       = 43
  Nbeta        = 43

  ==> Algorithm <==

  SCF Algorithm Type is DF.
  DIIS enabled.
  MOM disabled.
  Fractional occupation disabled.
  Guess Type is SAD.
  Energy threshold   = 1.00e-10
  Density threshold  = 1.00e-10
  Integral threshold = 1.00e-12

  ==> Primary Basis <==

  Basis Set: CC-PVTZ
    Blend: CC-PVTZ
    Number of shells: 204
    Number of basis functions: 556
    Number of Cartesian functions: 630
    Spherical Harmonics?: true
    Max angular momentum: 3

   => Loading Basis Set <=

    Name: (CC-PVTZ AUX)
    Role: JKFIT
    Keyword: DF_BASIS_SCF
    atoms 1-7, 13-16, 18  entry C          line   125 file /home/maxbuskirk/.conda/envs/psifour/share/psi4/basis/cc-pvtz-jkfit.gbs 
    atoms 8-12, 17, 19-26 entry H          line    51 file /home/maxbuskirk/.conda/envs/psifour/share/psi4/basis/cc-pvtz-jkfit.gbs 

  ==> Integral Setup <==

  ==> DiskDFJK: Density-Fitted J/K Matrices <==

    J tasked:                  Yes
    K tasked:                  Yes
    wK tasked:                  No
    OpenMP threads:              1
    Integrals threads:           1
    Memory [MiB]:              375
    Algorithm:                Disk
    Integral Cache:           NONE
    Schwarz Cutoff:          1E-12
    Fitting Condition:       1E-10

   => Auxiliary Basis Set <=

  Basis Set: (CC-PVTZ AUX)
    Blend: CC-PVTZ-JKFIT
    Number of shells: 440
    Number of basis functions: 1368
    Number of Cartesian functions: 1642
    Spherical Harmonics?: true
    Max angular momentum: 4

  Minimum eigenvalue in the overlap matrix is 2.2527871660E-05.
  Reciprocal condition number of the overlap matrix is 2.3239575944E-06.
    Using symmetric orthogonalization.

  ==> Pre-Iterations <==

  SCF Guess: Superposition of Atomic Densities via on-the-fly atomic UHF (no occupation information).

   -------------------------
    Irrep   Nso     Nmo    
   -------------------------
     A        556     556 
   -------------------------
    Total     556     556
   -------------------------

  ==> Iterations <==

                           Total Energy        Delta E     RMS |[F,P]|

   @DF-RHF iter SAD:  -463.41871445268794   -4.63419e+02   0.00000e+00 
   @DF-RHF iter   1:  -462.32053925526009    1.09818e+00   1.34150e-03 DIIS
   @DF-RHF iter   2:  -462.59397899137599   -2.73440e-01   6.74464e-04 DIIS
   @DF-RHF iter   3:  -462.66475567742486   -7.07767e-02   1.37403e-04 DIIS
   @DF-RHF iter   4:  -462.66905710038702   -4.30142e-03   4.89204e-05 DIIS
   @DF-RHF iter   5:  -462.66947878939192   -4.21689e-04   1.26817e-05 DIIS
   @DF-RHF iter   6:  -462.66951198515278   -3.31958e-05   2.95465e-06 DIIS
   @DF-RHF iter   7:  -462.66951422017405   -2.23502e-06   1.02203e-06 DIIS
   @DF-RHF iter   8:  -462.66951446703808   -2.46864e-07   2.56442e-07 DIIS
   @DF-RHF iter   9:  -462.66951449676264   -2.97246e-08   1.01279e-07 DIIS
   @DF-RHF iter  10:  -462.66951450229840   -5.53575e-09   5.13926e-08 DIIS
   @DF-RHF iter  11:  -462.66951450425887   -1.96047e-09   2.20968e-08 DIIS
   @DF-RHF iter  12:  -462.66951450464171   -3.82840e-10   9.47007e-09 DIIS
   @DF-RHF iter  13:  -462.66951450469276   -5.10454e-11   2.92509e-09 DIIS
   @DF-RHF iter  14:  -462.66951450470117   -8.41283e-12   9.50406e-10 DIIS
   @DF-RHF iter  15:  -462.66951450469855    2.61480e-12   3.04890e-10 DIIS
   @DF-RHF iter  16:  -462.66951450469674    1.81899e-12   1.08470e-10 DIIS
   @DF-RHF iter  17:  -462.66951450470003   -3.29692e-12   5.02181e-11 DIIS
  Energy and wave function converged.


  ==> Post-Iterations <==

    Orbital Energies [Eh]
    ---------------------

    Doubly Occupied:                                                      

       1A    -11.230568     2A    -11.224984     3A    -11.224564  
       4A    -11.223450     5A    -11.222294     6A    -11.221183  
       7A    -11.218033     8A    -11.216753     9A    -11.215839  
      10A    -11.212977    11A    -11.212298    12A    -11.210981  
      13A     -1.195105    14A     -1.161938    15A     -1.042444  
      16A     -1.024777    17A     -1.018041    18A     -0.951857  
      19A     -0.849690    20A     -0.829640    21A     -0.812426  
      22A     -0.769952    23A     -0.742865    24A     -0.703541  
      25A     -0.652369    26A     -0.643920    27A     -0.626089  
      28A     -0.603952    29A     -0.582576    30A     -0.575767  
      31A     -0.565314    32A     -0.564063    33A     -0.527510  
      34A     -0.512006    35A     -0.485691    36A     -0.476059  
      37A     -0.470826    38A     -0.466230    39A     -0.462238  
      40A     -0.410391    41A     -0.387373    42A     -0.342777  
      43A     -0.325834  

    Virtual:                                                              

      44A      0.136637    45A      0.138676    46A      0.146626  
      47A      0.152714    48A      0.157528    49A      0.168031  
      50A      0.182136    51A      0.182559    52A      0.192546  
      53A      0.208031    54A      0.210882    55A      0.214645  
      56A      0.219679    57A      0.235690    58A      0.259717  
      59A      0.269151    60A      0.281094    61A      0.286564  
      62A      0.313041    63A      0.316866    64A      0.345017  
      65A      0.350035    66A      0.363929    67A      0.377194  
      68A      0.389822    69A      0.400214    70A      0.411850  
      71A      0.413167    72A      0.425747    73A      0.427985  
      74A      0.435017    75A      0.443254    76A      0.447533  
      77A      0.457443    78A      0.479841    79A      0.484597  
      80A      0.495179    81A      0.506613    82A      0.511599  
      83A      0.533736    84A      0.533861    85A      0.543207  
      86A      0.561125    87A      0.564646    88A      0.569842  
      89A      0.582901    90A      0.584636    91A      0.590769  
      92A      0.596508    93A      0.601658    94A      0.607067  
      95A      0.612498    96A      0.618037    97A      0.623870  
      98A      0.628650    99A      0.633281   100A      0.638685  
     101A      0.643650   102A      0.648108   103A      0.652980  
     104A      0.655518   105A      0.670155   106A      0.674659  
     107A      0.676984   108A      0.678430   109A      0.692170  
     110A      0.702426   111A      0.719809   112A      0.728527  
     113A      0.734858   114A      0.742639   115A      0.752750  
     116A      0.760188   117A      0.774653   118A      0.785742  
     119A      0.792466   120A      0.813301   121A      0.836392  
     122A      0.855583   123A      0.866194   124A      0.874942  
     125A      0.880539   126A      0.895151   127A      0.919988  
     128A      0.935021   129A      0.948348   130A      0.963607  
     131A      0.969640   132A      0.988234   133A      0.995080  
     134A      1.003074   135A      1.014233   136A      1.024588  
     137A      1.033747   138A      1.048003   139A      1.048833  
     140A      1.058687   141A      1.073076   142A      1.075872  
     143A      1.088911   144A      1.090542   145A      1.108764  
     146A      1.129361   147A      1.135642   148A      1.138411  
     149A      1.162517   150A      1.169307   151A      1.181367  
     152A      1.186199   153A      1.198083   154A      1.205859  
     155A      1.212079   156A      1.222204   157A      1.226637  
     158A      1.239967   159A      1.248288   160A      1.261397  
     161A      1.272573   162A      1.291805   163A      1.292761  
     164A      1.295693   165A      1.310537   166A      1.317413  
     167A      1.329161   168A      1.338815   169A      1.348756  
     170A      1.355557   171A      1.364455   172A      1.365110  
     173A      1.385803   174A      1.393562   175A      1.406358  
     176A      1.416267   177A      1.418640   178A      1.422521  
     179A      1.444402   180A      1.445001   181A      1.467281  
     182A      1.468437   183A      1.477276   184A      1.490489  
     185A      1.507177   186A      1.515011   187A      1.520044  
     188A      1.535445   189A      1.544276   190A      1.549835  
     191A      1.557701   192A      1.559946   193A      1.570254  
     194A      1.575654   195A      1.587026   196A      1.597149  
     197A      1.604225   198A      1.609387   199A      1.613023  
     200A      1.622171   201A      1.628407   202A      1.642996  
     203A      1.647292   204A      1.662370   205A      1.668261  
     206A      1.691240   207A      1.698488   208A      1.704143  
     209A      1.711422   210A      1.719579   211A      1.737996  
     212A      1.751099   213A      1.759362   214A      1.770558  
     215A      1.776364   216A      1.792631   217A      1.802336  
     218A      1.827428   219A      1.841279   220A      1.860971  
     221A      1.879100   222A      1.894351   223A      1.902214  
     224A      1.949954   225A      1.979882   226A      2.001151  
     227A      2.023518   228A      2.026321   229A      2.044951  
     230A      2.094678   231A      2.135422   232A      2.148790  
     233A      2.179499   234A      2.241925   235A      2.253635  
     236A      2.343626   237A      2.368177   238A      2.401859  
     239A      2.413485   240A      2.466759   241A      2.521712  
     242A      2.523726   243A      2.530560   244A      2.567871  
     245A      2.580784   246A      2.598254   247A      2.610367  
     248A      2.622935   249A      2.626376   250A      2.677860  
     251A      2.699106   252A      2.699621   253A      2.711272  
     254A      2.731526   255A      2.748493   256A      2.767650  
     257A      2.776523   258A      2.791744   259A      2.799059  
     260A      2.814864   261A      2.825874   262A      2.837638  
     263A      2.848290   264A      2.869963   265A      2.875231  
     266A      2.888886   267A      2.894511   268A      2.907511  
     269A      2.912369   270A      2.923377   271A      2.930984  
     272A      2.940132   273A      2.952620   274A      2.962120  
     275A      2.970593   276A      2.985970   277A      2.993182  
     278A      3.004951   279A      3.012190   280A      3.019323  
     281A      3.025314   282A      3.032209   283A      3.040148  
     284A      3.059863   285A      3.065782   286A      3.069905  
     287A      3.074781   288A      3.080363   289A      3.096739  
     290A      3.104326   291A      3.109443   292A      3.120127  
     293A      3.129986   294A      3.155046   295A      3.157945  
     296A      3.170943   297A      3.188121   298A      3.209183  
     299A      3.218192   300A      3.225002   301A      3.240884  
     302A      3.253088   303A      3.256948   304A      3.267599  
     305A      3.269468   306A      3.277083   307A      3.287362  
     308A      3.304883   309A      3.317436   310A      3.330470  
     311A      3.345083   312A      3.351864   313A      3.369201  
     314A      3.373164   315A      3.377143   316A      3.384312  
     317A      3.388209   318A      3.399338   319A      3.404586  
     320A      3.406486   321A      3.415253   322A      3.421762  
     323A      3.428018   324A      3.431485   325A      3.437710  
     326A      3.449919   327A      3.457845   328A      3.458691  
     329A      3.466627   330A      3.476002   331A      3.485672  
     332A      3.487193   333A      3.496084   334A      3.515598  
     335A      3.524322   336A      3.528727   337A      3.539344  
     338A      3.545807   339A      3.554702   340A      3.568938  
     341A      3.577198   342A      3.584853   343A      3.599407  
     344A      3.612344   345A      3.621431   346A      3.638821  
     347A      3.642130   348A      3.648802   349A      3.656838  
     350A      3.675247   351A      3.678187   352A      3.692717  
     353A      3.697838   354A      3.700835   355A      3.705276  
     356A      3.708082   357A      3.715001   358A      3.722162  
     359A      3.735429   360A      3.753235   361A      3.760499  
     362A      3.768526   363A      3.776453   364A      3.792443  
     365A      3.800207   366A      3.818648   367A      3.836784  
     368A      3.850611   369A      3.852873   370A      3.870819  
     371A      3.889413   372A      3.897253   373A      3.904772  
     374A      3.915017   375A      3.936712   376A      3.951561  
     377A      3.952838   378A      3.973331   379A      3.987047  
     380A      3.998431   381A      4.009526   382A      4.027589  
     383A      4.044404   384A      4.049118   385A      4.061214  
     386A      4.071800   387A      4.079750   388A      4.087824  
     389A      4.091154   390A      4.107019   391A      4.122941  
     392A      4.130282   393A      4.141386   394A      4.151468  
     395A      4.157555   396A      4.163148   397A      4.168758  
     398A      4.174203   399A      4.185638   400A      4.192664  
     401A      4.197770   402A      4.203911   403A      4.211710  
     404A      4.221019   405A      4.229652   406A      4.237107  
     407A      4.241908   408A      4.267106   409A      4.281313  
     410A      4.283754   411A      4.304516   412A      4.308040  
     413A      4.318908   414A      4.329024   415A      4.335815  
     416A      4.347581   417A      4.354524   418A      4.369858  
     419A      4.377706   420A      4.383149   421A      4.395893  
     422A      4.400457   423A      4.413179   424A      4.425885  
     425A      4.432163   426A      4.440927   427A      4.451986  
     428A      4.457512   429A      4.466702   430A      4.480004  
     431A      4.493606   432A      4.495078   433A      4.511185  
     434A      4.524559   435A      4.525124   436A      4.557380  
     437A      4.562390   438A      4.571420   439A      4.581974  
     440A      4.586504   441A      4.592298   442A      4.596197  
     443A      4.619662   444A      4.630020   445A      4.636372  
     446A      4.649304   447A      4.654062   448A      4.674953  
     449A      4.679308   450A      4.693697   451A      4.707147  
     452A      4.716379   453A      4.728037   454A      4.740772  
     455A      4.747912   456A      4.755162   457A      4.766753  
     458A      4.779280   459A      4.789799   460A      4.802486  
     461A      4.829312   462A      4.844988   463A      4.848359  
     464A      4.865530   465A      4.879144   466A      4.899352  
     467A      4.930366   468A      4.945254   469A      4.957757  
     470A      4.969807   471A      5.009595   472A      5.018055  
     473A      5.027263   474A      5.043639   475A      5.052895  
     476A      5.065165   477A      5.085270   478A      5.105049  
     479A      5.127240   480A      5.136795   481A      5.152834  
     482A      5.168967   483A      5.179004   484A      5.204865  
     485A      5.227810   486A      5.245340   487A      5.254725  
     488A      5.264052   489A      5.277375   490A      5.285025  
     491A      5.312969   492A      5.314102   493A      5.333776  
     494A      5.355265   495A      5.371490   496A      5.375585  
     497A      5.388697   498A      5.401213   499A      5.408761  
     500A      5.432111   501A      5.447270   502A      5.451349  
     503A      5.475320   504A      5.481016   505A      5.501142  
     506A      5.529509   507A      5.550768   508A      5.562711  
     509A      5.576084   510A      5.580050   511A      5.596856  
     512A      5.631233   513A      5.638568   514A      5.649697  
     515A      5.662658   516A      5.680515   517A      5.716458  
     518A      5.746598   519A      5.775853   520A      5.806335  
     521A      5.828195   522A      5.837587   523A      5.864386  
     524A      5.887894   525A      5.927993   526A      5.995868  
     527A      6.043285   528A      6.076195   529A      6.095098  
     530A      6.137155   531A      6.187500   532A      6.227912  
     533A      6.254399   534A      6.276113   535A      6.368323  
     536A      6.403688   537A      6.428921   538A      6.488532  
     539A      6.506059   540A      6.603606   541A      6.621816  
     542A      6.637192   543A      6.982968   544A      7.465155  
     545A      9.639210   546A     12.138788   547A     12.450019  
     548A     12.720613   549A     13.377386   550A     13.791371  
     551A     13.886013   552A     14.094100   553A     14.392399  
     554A     14.786718   555A     15.261805   556A     17.669369  

    Final Occupation by Irrep:
              A 
    DOCC [    43 ]

  @DF-RHF Final Energy:  -462.66951450470003

   => Energetics <=

    Nuclear Repulsion Energy =            680.1059015327545012
    One-Electron Energy =               -1974.7164561595150190
    Two-Electron Energy =                 831.9410401220603717
    Total Energy =                       -462.6695145047000324

Computation Completed


Properties will be evaluated at   0.000000,   0.000000,   0.000000 [a0]

Properties computed using the SCF density matrix

  Nuclear Dipole Moment: [e a0]
     X:     7.1935      Y:     1.4596      Z:    -0.2048

  Electronic Dipole Moment: [e a0]
     X:    -7.0924      Y:    -1.4721      Z:     0.2135

  Dipole Moment: [e a0]
     X:     0.1011      Y:    -0.0125      Z:     0.0087     Total:     0.1022

  Dipole Moment: [D]
     X:     0.2570      Y:    -0.0318      Z:     0.0221     Total:     0.2599


*** tstop() called on skystd01.palmetto.clemson.edu at Wed Dec  8 20:36:07 2021
Module time:
	user time   =      86.74 seconds =       1.45 minutes
	system time =       9.81 seconds =       0.16 minutes
	total time  =         96 seconds =       1.60 minutes
Total time:
	user time   =      86.74 seconds =       1.45 minutes
	system time =       9.81 seconds =       0.16 minutes
	total time  =         96 seconds =       1.60 minutes
 MINTS: Wrapper to libmints.
   by Justin Turney

   Calculation information:
      Number of threads:                 1
      Number of atoms:                  26
      Number of AO shells:             204
      Number of SO shells:             204
      Number of primitives:            424
      Number of atomic orbitals:       630
      Number of basis functions:       556

      Number of irreps:                  1
      Integral cutoff                 1.00e-12
      Number of functions per irrep: [ 556 ]

 OEINTS: Overlap, kinetic, potential, dipole, and quadrupole integrals
         stored in file 35.

      Computing two-electron integrals...