
    -----------------------------------------------------------------------
          Psi4: An Open-Source Ab Initio Electronic Structure Package
                               Psi4 1.4 release

                         Git: Rev {HEAD} 9485035 


    D. G. A. Smith, L. A. Burns, A. C. Simmonett, R. M. Parrish,
    M. C. Schieber, R. Galvelis, P. Kraus, H. Kruse, R. Di Remigio,
    A. Alenaizan, A. M. James, S. Lehtola, J. P. Misiewicz, M. Scheurer,
    R. A. Shaw, J. B. Schriber, Y. Xie, Z. L. Glick, D. A. Sirianni,
    J. S. O'Brien, J. M. Waldrop, A. Kumar, E. G. Hohenstein,
    B. P. Pritchard, B. R. Brooks, H. F. Schaefer III, A. Yu. Sokolov,
    K. Patkowski, A. E. DePrince III, U. Bozkaya, R. A. King,
    F. A. Evangelista, J. M. Turney, T. D. Crawford, C. D. Sherrill,
    J. Chem. Phys. 152(18) 184108 (2020). https://doi.org/10.1063/5.0006002

                            Additional Code Authors
    E. T. Seidl, C. L. Janssen, E. F. Valeev, M. L. Leininger,
    J. F. Gonthier, R. M. Richard, H. R. McAlexander, M. Saitow, X. Wang,
    P. Verma, and M. H. Lechner

             Previous Authors, Complete List of Code Contributors,
                       and Citations for Specific Modules
    https://github.com/psi4/psi4/blob/master/codemeta.json
    https://github.com/psi4/psi4/graphs/contributors
    http://psicode.org/psi4manual/master/introduction.html#citing-psifour

    -----------------------------------------------------------------------


    Psi4 started on: Friday, 18 February 2022 02:27AM

    Process ID: 1211300
    Host:       skylm006.palmetto.clemson.edu
    PSIDATADIR: /home/maxbuskirk/.conda/envs/psifour/share/psi4
    Memory:     500.0 MiB
    Threads:    1
    
  ==> Input File <==

--------------------------------------------------------------------------
memory 62 GB

molecule mol {
0 1
    C            3.925032925852     0.814515100899     0.441512512978
    C            2.465104029492     1.312406302065     0.522395484756
    C            1.677251551997     0.164974335646    -0.104432268218
    C            2.493255818261    -0.633670171723    -0.838152651633
    C            3.934304482702    -0.149284983546    -0.764971647237
    C            0.205012398001     0.051923300011     0.058312977378
    C           -0.427457675220    -1.194624665919     0.281366887584
    C           -1.810692386067    -1.287269762279     0.444207861434
    C           -2.614307116932    -0.129755194347     0.397499660677
    C           -2.006023666804     1.120073061307     0.197814323285
    C           -0.610003614040     1.197148692659     0.038278730784
    C            2.127349129046    -1.793952051039    -1.725842051327
    H           -0.155427102668     2.181369084267    -0.115835369013
    H           -2.593697076134     2.039880076807     0.166366698239
    O           -3.955723647595    -0.334407039179     0.566510125662
    H           -2.298366780512    -2.250094981609     0.622352766084
    H            0.180346124821    -2.101830539078     0.351964066437
    H            4.159349119164     0.244836838380     1.358747610426
    H            4.661174973746     1.631232830530     0.355279950026
    H            4.656946384136    -0.978007779963    -0.649075656410
    H            4.200174891699     0.374429221712    -1.706522238997
    H            1.041327767594    -1.864589437673    -1.892785361362
    H            2.623266810190    -1.685521075287    -2.708377519190
    H            2.476599463377    -2.752059648911    -1.296272206750
    H            2.142188728640     1.536839031650     1.554253360971
    H            2.325645869095     2.240207004459    -0.068753958365
    C           -4.787434680498     0.812080942118     0.509617185911
    H           -5.810557395454     0.452690470424     0.687537763167
    H           -4.519253031380     1.548831603492     1.289425678240
    H           -4.740285676780     1.300804102124    -0.481051929290
}

set scf_type df
set basis cc-pVDZ
set reference rhf

mol.update_geometry()
mol.symmetrize(1e-3)

e, wfn = optimize('CCSD', return_wfn=True)
oeprop(wfn, "MULLIKEN_CHARGES")
mol.print_out()
print_variables()
--------------------------------------------------------------------------

  Memory set to  57.742 GiB by Python driver.

Scratch directory: /scratch1/maxbuskirk/
gradient() will perform analytic gradient computation.

*** tstart() called on skylm006.palmetto.clemson.edu
*** at Fri Feb 18 02:27:55 2022

   => Loading Basis Set <=

    Name: CC-PVDZ
    Role: ORBITAL
    Keyword: BASIS
    atoms 1-12, 27            entry C          line   138 file /home/maxbuskirk/.conda/envs/psifour/share/psi4/basis/cc-pvdz.gbs 
    atoms 13-14, 16-26, 28-30 entry H          line    22 file /home/maxbuskirk/.conda/envs/psifour/share/psi4/basis/cc-pvdz.gbs 
    atoms 15                  entry O          line   198 file /home/maxbuskirk/.conda/envs/psifour/share/psi4/basis/cc-pvdz.gbs 


         ---------------------------------------------------------
                                   SCF
               by Justin Turney, Rob Parrish, Andy Simmonett
                          and Daniel G. A. Smith
                              RHF Reference
                        1 Threads,  59127 MiB Core
         ---------------------------------------------------------

  ==> Geometry <==

    Molecular point group: c1
    Full point group: C1

    Geometry (in Angstrom), charge = 0, multiplicity = 1:

       Center              X                  Y                   Z               Mass       
    ------------   -----------------  -----------------  -----------------  -----------------
         C            3.925032925852     0.814515100899     0.441512512978    12.000000000000
         C            2.465104029492     1.312406302065     0.522395484756    12.000000000000
         C            1.677251551997     0.164974335646    -0.104432268218    12.000000000000
         C            2.493255818261    -0.633670171723    -0.838152651633    12.000000000000
         C            3.934304482702    -0.149284983546    -0.764971647237    12.000000000000
         C            0.205012398001     0.051923300011     0.058312977378    12.000000000000
         C           -0.427457675220    -1.194624665919     0.281366887584    12.000000000000
         C           -1.810692386067    -1.287269762279     0.444207861434    12.000000000000
         C           -2.614307116932    -0.129755194347     0.397499660677    12.000000000000
         C           -2.006023666804     1.120073061307     0.197814323285    12.000000000000
         C           -0.610003614040     1.197148692659     0.038278730784    12.000000000000
         C            2.127349129046    -1.793952051039    -1.725842051327    12.000000000000
         H           -0.155427102668     2.181369084267    -0.115835369013     1.007825032230
         H           -2.593697076134     2.039880076807     0.166366698239     1.007825032230
         O           -3.955723647595    -0.334407039179     0.566510125662    15.994914619570
         H           -2.298366780512    -2.250094981609     0.622352766084     1.007825032230
         H            0.180346124821    -2.101830539078     0.351964066437     1.007825032230
         H            4.159349119164     0.244836838380     1.358747610426     1.007825032230
         H            4.661174973746     1.631232830530     0.355279950026     1.007825032230
         H            4.656946384136    -0.978007779963    -0.649075656410     1.007825032230
         H            4.200174891699     0.374429221712    -1.706522238997     1.007825032230
         H            1.041327767594    -1.864589437673    -1.892785361362     1.007825032230
         H            2.623266810190    -1.685521075287    -2.708377519190     1.007825032230
         H            2.476599463377    -2.752059648911    -1.296272206750     1.007825032230
         H            2.142188728640     1.536839031650     1.554253360971     1.007825032230
         H            2.325645869095     2.240207004459    -0.068753958365     1.007825032230
         C           -4.787434680498     0.812080942118     0.509617185911    12.000000000000
         H           -5.810557395454     0.452690470424     0.687537763167     1.007825032230
         H           -4.519253031380     1.548831603492     1.289425678240     1.007825032230
         H           -4.740285676780     1.300804102124    -0.481051929290     1.007825032230

  Running in c1 symmetry.

  Rotational constants: A =      0.06266  B =      0.01072  C =      0.00964 [cm^-1]
  Rotational constants: A =   1878.37973  B =    321.45727  C =    288.86205 [MHz]
  Nuclear repulsion =  841.102225077597609

  Charge       = 0
  Multiplicity = 1
  Electrons    = 102
  Nalpha       = 51
  Nbeta        = 51

  ==> Algorithm <==

  SCF Algorithm Type is DF.
  DIIS enabled.
  MOM disabled.
  Fractional occupation disabled.
  Guess Type is SAD.
  Energy threshold   = 1.00e-10
  Density threshold  = 1.00e-10
  Integral threshold = 1.00e-12

  ==> Primary Basis <==

  Basis Set: CC-PVDZ
    Blend: CC-PVDZ
    Number of shells: 132
    Number of basis functions: 276
    Number of Cartesian functions: 290
    Spherical Harmonics?: true
    Max angular momentum: 2

   => Loading Basis Set <=

    Name: (CC-PVDZ AUX)
    Role: JKFIT
    Keyword: DF_BASIS_SCF
    atoms 1-12, 27            entry C          line   121 file /home/maxbuskirk/.conda/envs/psifour/share/psi4/basis/cc-pvdz-jkfit.gbs 
    atoms 13-14, 16-26, 28-30 entry H          line    51 file /home/maxbuskirk/.conda/envs/psifour/share/psi4/basis/cc-pvdz-jkfit.gbs 
    atoms 15                  entry O          line   221 file /home/maxbuskirk/.conda/envs/psifour/share/psi4/basis/cc-pvdz-jkfit.gbs 

  ==> Integral Setup <==

  DFHelper Memory: AOs need 0.659 GiB; user supplied 43.306 GiB. Using in-core AOs.

  ==> MemDFJK: Density-Fitted J/K Matrices <==

    J tasked:                   Yes
    K tasked:                   Yes
    wK tasked:                   No
    OpenMP threads:               1
    Memory [MiB]:             44345
    Algorithm:                 Core
    Schwarz Cutoff:           1E-12
    Mask sparsity (%):      17.2627
    Fitting Condition:        1E-10

   => Auxiliary Basis Set <=

  Basis Set: (CC-PVDZ AUX)
    Blend: CC-PVDZ-JKFIT
    Number of shells: 480
    Number of basis functions: 1348
    Number of Cartesian functions: 1534
    Spherical Harmonics?: true
    Max angular momentum: 3

  Minimum eigenvalue in the overlap matrix is 3.2489502857E-04.
  Reciprocal condition number of the overlap matrix is 5.0646006329E-05.
    Using symmetric orthogonalization.

  ==> Pre-Iterations <==

  SCF Guess: Superposition of Atomic Densities via on-the-fly atomic UHF (no occupation information).

   -------------------------
    Irrep   Nso     Nmo    
   -------------------------
     A        276     276 
   -------------------------
    Total     276     276
   -------------------------

  ==> Iterations <==

                           Total Energy        Delta E     RMS |[F,P]|

   @DF-RHF iter SAD:  -575.55635887788299   -5.75556e+02   0.00000e+00 
   @DF-RHF iter   1:  -576.19832075228703   -6.41962e-01   2.26728e-03 DIIS
   @DF-RHF iter   2:  -576.44169164520599   -2.43371e-01   9.49227e-04 DIIS
   @DF-RHF iter   3:  -576.47942294882159   -3.77313e-02   2.66044e-04 DIIS
   @DF-RHF iter   4:  -576.48363541879132   -4.21247e-03   1.06535e-04 DIIS
   @DF-RHF iter   5:  -576.48415845889849   -5.23040e-04   2.15055e-05 DIIS
   @DF-RHF iter   6:  -576.48418877808786   -3.03192e-05   8.28780e-06 DIIS
   @DF-RHF iter   7:  -576.48419309788289   -4.31980e-06   2.37910e-06 DIIS
   @DF-RHF iter   8:  -576.48419380549353   -7.07611e-07   1.02385e-06 DIIS
   @DF-RHF iter   9:  -576.48419395630151   -1.50808e-07   4.50211e-07 DIIS
   @DF-RHF iter  10:  -576.48419399501370   -3.87122e-08   1.92320e-07 DIIS
   @DF-RHF iter  11:  -576.48419400434375   -9.33005e-09   8.54549e-08 DIIS
   @DF-RHF iter  12:  -576.48419400584044   -1.49669e-09   3.15550e-08 DIIS
   @DF-RHF iter  13:  -576.48419400601324   -1.72804e-10   1.12354e-08 DIIS
   @DF-RHF iter  14:  -576.48419400603052   -1.72804e-11   4.41803e-09 DIIS
   @DF-RHF iter  15:  -576.48419400603268   -2.16005e-12   1.69704e-09 DIIS
   @DF-RHF iter  16:  -576.48419400603370   -1.02318e-12   9.05873e-10 DIIS
   @DF-RHF iter  17:  -576.48419400603211    1.59162e-12   4.00002e-10 DIIS
   @DF-RHF iter  18:  -576.48419400603234   -2.27374e-13   1.54239e-10 DIIS
   @DF-RHF iter  19:  -576.48419400603370   -1.36424e-12   7.56437e-11 DIIS
  Energy and wave function converged.


  ==> Post-Iterations <==

    Orbital Energies [Eh]
    ---------------------

    Doubly Occupied:                                                      

       1A    -20.584630     2A    -11.302354     3A    -11.293171  
       4A    -11.243909     5A    -11.242458     6A    -11.238338  
       7A    -11.237325     8A    -11.232535     9A    -11.231257  
      10A    -11.228451    11A    -11.227949    12A    -11.227289  
      13A    -11.227141    14A    -11.224898    15A     -1.408626  
      16A     -1.153311    17A     -1.123702    18A     -1.027704  
      19A     -1.014221    20A     -1.001142    21A     -0.958636  
      22A     -0.922788    23A     -0.895857    24A     -0.830468  
      25A     -0.805030    26A     -0.778042    27A     -0.718485  
      28A     -0.693636    29A     -0.659188    30A     -0.649306  
      31A     -0.639480    32A     -0.633470    33A     -0.618125  
      34A     -0.586745    35A     -0.579188    36A     -0.568605  
      37A     -0.562414    38A     -0.556637    39A     -0.537894  
      40A     -0.519602    41A     -0.518432    42A     -0.500340  
      43A     -0.482486    44A     -0.479457    45A     -0.474553  
      46A     -0.470032    47A     -0.458683    48A     -0.452674  
      49A     -0.348322    50A     -0.334423    51A     -0.279121  

    Virtual:                                                              

      52A      0.126335    53A      0.133964    54A      0.179087  
      55A      0.186705    56A      0.200573    57A      0.203928  
      58A      0.207304    59A      0.221263    60A      0.232805  
      61A      0.242030    62A      0.256655    63A      0.265322  
      64A      0.266175    65A      0.271743    66A      0.274862  
      67A      0.288467    68A      0.291841    69A      0.302916  
      70A      0.307279    71A      0.328256    72A      0.343145  
      73A      0.367606    74A      0.391168    75A      0.397067  
      76A      0.416237    77A      0.432757    78A      0.437998  
      79A      0.450924    80A      0.472654    81A      0.509873  
      82A      0.524678    83A      0.550242    84A      0.579092  
      85A      0.598853    86A      0.625915    87A      0.629565  
      88A      0.633260    89A      0.636523    90A      0.663780  
      91A      0.667893    92A      0.674441    93A      0.690335  
      94A      0.699019    95A      0.706728    96A      0.717509  
      97A      0.721504    98A      0.737435    99A      0.740794  
     100A      0.746721   101A      0.752991   102A      0.764606  
     103A      0.771536   104A      0.795102   105A      0.806708  
     106A      0.816843   107A      0.826148   108A      0.833104  
     109A      0.846362   110A      0.851431   111A      0.856789  
     112A      0.865383   113A      0.867966   114A      0.882311  
     115A      0.885063   116A      0.886079   117A      0.889493  
     118A      0.894336   119A      0.900604   120A      0.913416  
     121A      0.915744   122A      0.921803   123A      0.930108  
     124A      0.934376   125A      0.937256   126A      0.947562  
     127A      0.952837   128A      0.955539   129A      0.962126  
     130A      0.982897   131A      0.989009   132A      0.996738  
     133A      1.014744   134A      1.038575   135A      1.048524  
     136A      1.064649   137A      1.114244   138A      1.125716  
     139A      1.143016   140A      1.158342   141A      1.169731  
     142A      1.178512   143A      1.193849   144A      1.199835  
     145A      1.237275   146A      1.244804   147A      1.267291  
     148A      1.283379   149A      1.295879   150A      1.304998  
     151A      1.327008   152A      1.340881   153A      1.343486  
     154A      1.363568   155A      1.375141   156A      1.383193  
     157A      1.439872   158A      1.451157   159A      1.472812  
     160A      1.480091   161A      1.495559   162A      1.499762  
     163A      1.515770   164A      1.539699   165A      1.559462  
     166A      1.578148   167A      1.590986   168A      1.610302  
     169A      1.623633   170A      1.653467   171A      1.656951  
     172A      1.689106   173A      1.706623   174A      1.715304  
     175A      1.730186   176A      1.752664   177A      1.761085  
     178A      1.766045   179A      1.791607   180A      1.802545  
     181A      1.806104   182A      1.828934   183A      1.837666  
     184A      1.845107   185A      1.860814   186A      1.868100  
     187A      1.879525   188A      1.884501   189A      1.889701  
     190A      1.901068   191A      1.907313   192A      1.914710  
     193A      1.925037   194A      1.930848   195A      1.932007  
     196A      1.944440   197A      1.947287   198A      1.956533  
     199A      1.971409   200A      1.979316   201A      1.980342  
     202A      2.001344   203A      2.019117   204A      2.026592  
     205A      2.030415   206A      2.038386   207A      2.052295  
     208A      2.063234   209A      2.069866   210A      2.077358  
     211A      2.081956   212A      2.105534   213A      2.113869  
     214A      2.120057   215A      2.124120   216A      2.135150  
     217A      2.154450   218A      2.164750   219A      2.168837  
     220A      2.205182   221A      2.223313   222A      2.246411  
     223A      2.254879   224A      2.263588   225A      2.269657  
     226A      2.282439   227A      2.301226   228A      2.318326  
     229A      2.343727   230A      2.349531   231A      2.359267  
     232A      2.375561   233A      2.399852   234A      2.409142  
     235A      2.434133   236A      2.436681   237A      2.452572  
     238A      2.463942   239A      2.469696   240A      2.503115  
     241A      2.524598   242A      2.538507   243A      2.548304  
     244A      2.555748   245A      2.592011   246A      2.620895  
     247A      2.664804   248A      2.680109   249A      2.724441  
     250A      2.726853   251A      2.730940   252A      2.754423  
     253A      2.765460   254A      2.771261   255A      2.784888  
     256A      2.799345   257A      2.822458   258A      2.825519  
     259A      2.832166   260A      2.876940   261A      2.920471  
     262A      2.944171   263A      2.956693   264A      2.993400  
     265A      3.009555   266A      3.025863   267A      3.063754  
     268A      3.122183   269A      3.195817   270A      3.253593  
     271A      3.260247   272A      3.405635   273A      3.427649  
     274A      3.625356   275A      3.791944   276A      4.004023  

    Final Occupation by Irrep:
              A 
    DOCC [    51 ]

  @DF-RHF Final Energy:  -576.48419400603370

   => Energetics <=

    Nuclear Repulsion Energy =            841.1022250775976090
    One-Electron Energy =               -2451.2077767123473677
    Two-Electron Energy =                1033.6213576287159412
    Total Energy =                       -576.4841940060337038

Computation Completed


Properties will be evaluated at   0.000000,   0.000000,   0.000000 [a0]

Properties computed using the SCF density matrix

  Nuclear Dipole Moment: [e a0]
     X:     7.8083      Y:     1.7974      Z:    -2.3717

  Electronic Dipole Moment: [e a0]
     X:    -7.9218      Y:    -1.3299      Z:     2.2554

  Dipole Moment: [e a0]
     X:    -0.1134      Y:     0.4675      Z:    -0.1163     Total:     0.4949

  Dipole Moment: [D]
     X:    -0.2883      Y:     1.1882      Z:    -0.2956     Total:     1.2579


*** tstop() called on skylm006.palmetto.clemson.edu at Fri Feb 18 02:28:15 2022
Module time:
	user time   =      14.60 seconds =       0.24 minutes
	system time =       0.89 seconds =       0.01 minutes
	total time  =         20 seconds =       0.33 minutes
Total time:
	user time   =      14.60 seconds =       0.24 minutes
	system time =       0.89 seconds =       0.01 minutes
	total time  =         20 seconds =       0.33 minutes
 MINTS: Wrapper to libmints.
   by Justin Turney

   Calculation information:
      Number of threads:                 1
      Number of atoms:                  30
      Number of AO shells:             132
      Number of SO shells:             132
      Number of primitives:            388
      Number of atomic orbitals:       290
      Number of basis functions:       276

      Number of irreps:                  1
      Integral cutoff                 1.00e-12
      Number of functions per irrep: [ 276 ]

 OEINTS: Overlap, kinetic, potential, dipole, and quadrupole integrals
         stored in file 35.

      Computing two-electron integrals...done
      Computed 372118443 non-zero two-electron integrals.
        Stored in file 33.


*** tstart() called on skylm006.palmetto.clemson.edu
*** at Fri Feb 18 02:35:14 2022


	Wfn Parameters:
	--------------------
	Wavefunction         = CCSD
	Number of irreps     = 1
	Number of MOs        = 276
	Number of active MOs = 276
	AO-Basis             = NONE
	Semicanonical        = false
	Reference            = RHF
	Print Level          = 1

	IRREP	# MOs	# FZDC	# DOCC	# SOCC	# VIRT	# FZVR
	-----	-----	------	------	------	------	------
	 A	   276	    0	    51	    0	    225	    0
	Transforming integrals...
	IWL integrals will be deleted.
	(OO|OO)...
	Presorting SO-basis two-electron integrals.
	Sorting File: SO Ints (nn|nn) nbuckets = 1
	Constructing frozen core operators
	Starting first half-transformation.
	Sorting half-transformed integrals.
	First half integral transformation complete.
	Starting second half-transformation.
	Two-electron integral transformation complete.
	(OO|OV)...
	Starting second half-transformation.
	Two-electron integral transformation complete.
	(OO|VV)...
	Starting second half-transformation.
	Two-electron integral transformation complete.
	(OV|OO)...
	Starting first half-transformation.
	Sorting half-transformed integrals.
	First half integral transformation complete.
	Starting second half-transformation.
	Two-electron integral transformation complete.
	(OV|OV)...
	Starting second half-transformation.
	Two-electron integral transformation complete.
	(OV|VV)...
	Starting second half-transformation.
	Two-electron integral transformation complete.
	(VV|OO)...
	Starting first half-transformation.
	Sorting half-transformed integrals.
	First half integral transformation complete.
	Starting second half-transformation.
	Two-electron integral transformation complete.
	(VV|OV)...
	Starting second half-transformation.
	Two-electron integral transformation complete.
	(VV|VV)...
	Starting second half-transformation.
	Two-electron integral transformation complete.
	Frozen core energy     =      0.00000000000000

	Size of irrep 0 of <ab|cd> integrals:   2562.891 (MW) /  20503.125 (MB)
	Total:                                  2562.891 (MW) /  20503.125 (MB)

	Size of irrep 0 of <ia|bc> integrals:    580.922 (MW) /   4647.375 (MB)
	Total:                                   580.922 (MW) /   4647.375 (MB)

	Size of irrep 0 of tijab amplitudes:     131.676 (MW) /   1053.405 (MB)
	Total:                                   131.676 (MW) /   1053.405 (MB)

	Nuclear Rep. energy          =    841.10222507759761
	SCF energy                   =   -576.48419400603370
	One-electron energy          =  -2451.20777669197378
	Two-electron energy          =   1033.62052459405254
	Reference energy             =   -576.48502702032363

*** tstop() called on skylm006.palmetto.clemson.edu at Fri Feb 18 02:49:27 2022
Module time:
	user time   =     249.88 seconds =       4.16 minutes
	system time =     142.67 seconds =       2.38 minutes
	total time  =        853 seconds =      14.22 minutes
Total time:
	user time   =     469.07 seconds =       7.82 minutes
	system time =     161.13 seconds =       2.69 minutes
	total time  =       1292 seconds =      21.53 minutes
            **************************
            *                        *
            *        CCENERGY        *
            *                        *
            **************************

    Nuclear Rep. energy (wfn)     =  841.102225077597609
    SCF energy          (wfn)     = -576.484194006033704
    Reference energy    (file100) = -576.485027020323628

    Input parameters:
    -----------------
    Wave function   =     CCSD
    Reference wfn   =     RHF
    Brueckner       =     No
    Memory (Mbytes) =     62000.0
    Maxiter         =     50
    R_Convergence   =     1.0e-07
    E_Convergence   =     1.0e-08
    Restart         =     Yes
    DIIS            =     Yes
    AO Basis        =     NONE
    ABCD            =     NEW
    Cache Level     =     2
    Cache Type      =     LOW
    Print Level     =     1
    Num. of threads =     1
    # Amps to Print =     10
    Print MP2 Amps? =     No
    Analyze T2 Amps =     No
    Print Pair Ener =     No
    Local CC        =     No
    SCS-MP2         =     False
    SCSN-MP2        =     False
    SCS-CCSD        =     False

MP2 correlation energy -1.9745963193136300
                Solving CC Amplitude Equations
                ------------------------------
  Iter             Energy              RMS        T1Diag      D1Diag    New D1Diag    D2Diag
  ----     ---------------------    ---------   ----------  ----------  ----------   --------
     0        -1.974596319313630    0.000e+00    0.000000    0.000000    0.000000    0.181337
     1        -2.007272195500267    1.375e-01    0.007592    0.032326    0.032326    0.172548
     2        -2.061151603797314    4.890e-02    0.007593    0.028557    0.028557    0.186444
     3        -2.074220999982861    2.141e-02    0.008787    0.038116    0.038116    0.191560
     4        -2.074401093400511    6.861e-03    0.008928    0.038359    0.038359    0.193370
     5        -2.074514501140921    3.247e-03    0.009020    0.039920    0.039920    0.194491
     6        -2.074616391230909    9.249e-04    0.009046    0.040406    0.040406    0.194796
     7        -2.074594576028685    3.574e-04    0.009050    0.040549    0.040549    0.194838
     8        -2.074583123251709    1.364e-04    0.009053    0.040625    0.040625    0.194843
     9        -2.074586725787059    5.617e-05    0.009054    0.040661    0.040661    0.194844
    10        -2.074585246746065    2.794e-05    0.009055    0.040681    0.040681    0.194841
    11        -2.074584232155887    1.167e-05    0.009056    0.040690    0.040690    0.194840
    12        -2.074583919924475    5.375e-06    0.009056    0.040694    0.040694    0.194840
    13        -2.074583686206152    2.281e-06    0.009056    0.040694    0.040694    0.194840
    14        -2.074583603668525    1.167e-06    0.009056    0.040694    0.040694    0.194840
    15        -2.074583601906892    5.169e-07    0.009056    0.040694    0.040694    0.194840
    16        -2.074583598361743    2.444e-07    0.009056    0.040694    0.040694    0.194840
    17        -2.074583600830076    1.157e-07    0.009056    0.040694    0.040694    0.194840
    18        -2.074583601390693    5.406e-08    0.009056    0.040694    0.040694    0.194840

    Iterations converged.


    Largest TIA Amplitudes:
             49  49        -0.0140097255
             47   1         0.0124674682
             47   0        -0.0111098884
             29   1        -0.0108063855
             49   1         0.0105936518
             29   0         0.0102489473
             49  94         0.0092597036
             29  12         0.0090741094
             40   1         0.0087285917
             49  40         0.0082866598

    Largest TIjAb Amplitudes:
     49  49   1   1        -0.0629510507
     50  50   0   0        -0.0518828998
     49  49   0   0        -0.0419848369
     50  50   1   1        -0.0343878703
     49  49   0   1        -0.0285249415
     49  49   1   0        -0.0285249415
     48  48   0   0        -0.0277548268
     48  50   0   6        -0.0266503416
     50  48   6   0        -0.0266503416
     49  50   0   1         0.0254269466

    SCF energy       (wfn)                    = -576.484194006033704
    Reference energy (file100)                = -576.485027020323628

    Opposite-spin MP2 correlation energy      =   -1.463681963313789
    Same-spin MP2 correlation energy          =   -0.510914355999841
    Singles MP2 correlation energy            =   -0.000000000000000
    MP2 correlation energy                    =   -1.974596319313630
      * MP2 total energy                      = -578.459623339637233

    Opposite-spin CCSD correlation energy     =   -1.615238917253564
    Same-spin CCSD correlation energy         =   -0.459344684137129
    Singles CCSD correlation energy           =    0.000000000000000
    CCSD correlation energy                   =   -2.074583601390693
      * CCSD total energy                     = -578.559610621714342


			**************************
			*                        *
			*         CCHBAR         *
			*                        *
			**************************


			**************************
			*        CCLAMBDA        *
			**************************


	Nuclear Rep. energy (wfn)     =  841.102225077597609
	Reference           (wfn)     =                    0
	SCF energy          (wfn)     = -576.484194006033704
	Reference energy    (CC_INFO) = -576.485027020323628
	CCSD energy         (CC_INFO) =   -2.074583601390693
	Total CCSD energy   (CC_INFO) = -578.559610621714342

	Input parameters:
	-----------------
	Maxiter           =     50
	Convergence       = 1.0e-07
	Restart           =     No
	Cache Level       =     2
	Model III         =     No
	DIIS              =     Yes
	AO Basis          =     No
	ABCD              =     NEW
	Local CC          =     No
	Parameters for left-handed eigenvectors:
	    Irr   Root  Ground-State?    EOM energy        R0
	  1   0     0        Yes       0.0000000000   1.0000000000
	Labels for eigenvector 1:
	LIA 0 -1, Lia 0 -1, LIJAB 0 -1, Lijab 0 -1, LIjAb 0 -1, 2LIjAb - LIjbA 0 -1
	Symmetry of left-hand state: A
	Symmetry of left-hand eigenvector: A

	          Solving Lambda Equations
	          ------------------------
	Iter     PseudoEnergy or Norm         RMS  
	----     ---------------------     --------
	   0        -2.074799351743248    0.000e+00
	   1        -2.014404708837774    3.857e-02
	   2        -2.008669178336842    8.113e-03
	   3        -2.007172616120866    4.102e-03
	   4        -2.006743813218479    1.465e-03
	   5        -2.006838879935379    7.807e-04
	   6        -2.006859167027886    2.850e-04
	   7        -2.006847701560750    1.305e-04
	   8        -2.006849924584716    5.192e-05
	   9        -2.006851635174784    2.143e-05
	  10        -2.006851259497576    8.739e-06
	  11        -2.006851475207355    4.119e-06
	  12        -2.006851353138670    1.895e-06
	  13        -2.006851279328007    8.712e-07
	  14        -2.006851279826710    4.216e-07
	  15        -2.006851270682906    2.200e-07
	  16        -2.006851268749534    1.129e-07
	  17        -2.006851268902520    5.588e-08

	Largest LIA Amplitudes:
	         49  49        -0.0110552852
	         47   1         0.0083171854
	         49   1         0.0079970482
	         47   0        -0.0075336909
	         49  94         0.0074820742
	         29   1        -0.0071128193
	         29   0         0.0066455914
	         49  40         0.0065590107
	         50  56         0.0064151045
	         40   1         0.0063753876

	Largest LIjAb Amplitudes:
	 49  49   1   1        -0.0588644877
	 50  50   0   0        -0.0478202331
	 49  49   0   0        -0.0388595371
	 50  50   1   1        -0.0310962347
	 49  49   0   1        -0.0274016275
	 49  49   1   0        -0.0274016275
	 48  48   0   0        -0.0255308487
	 48  50   0   6        -0.0249368152
	 50  48   6   0        -0.0249368152
	 49  50   0   1         0.0237291505

	Iterations converged.

	Overlap <L|e^T> =        0.22597838421

			**************************
			*                        *
			*        CCDENSITY       *
			*                        *
			**************************


	Input parameters:
	-----------------
	Wave function    =   CCSD
	Reference wfn    =   RHF
	Dertype          = 1
	Tolerance        = 1.0e-14
	Cache Level      = 2
	AO Basis         = No
	OPDM Only        = No
	Relax OPDM       = Yes
	Compute Xi       = No
	Use Zeta         = No
	Xi connected     = Yes
	Compute NO       = No

	Nuclear Rep. energy (wfn)     =  841.102225077597609
	SCF energy          (wfn)     = -576.484194006033704
	Reference energy    (file100) = -576.485027020323628
	CCSD energy         (CC_INFO) =   -2.074583601390693
	Total CCSD energy   (CC_INFO) = -578.559610621714342
	Number of States = 1

	Ground?  State     EOM Energy       R0
	  Yes     0  A    0.0000000000   1.00000000

	Virial Theorem Data:
	--------------------
	Kinetic energy (ref)   =  575.480719760647844
	Kinetic energy (corr)  =    1.994788223388894
	Kinetic energy (total) =  577.475507984036767
	-V/T (ref)             =    2.001745162305513
	-V/T (corr)            =    2.040001929561343
	-V/T (total)           =    2.001877313622290
    Molecular point group: c1
    Full point group: C1

    Geometry (in Bohr), charge = 0, multiplicity = 1:

       Center              X                  Y                   Z       
    ------------   -----------------  -----------------  -----------------
         C            7.417237263265     1.539210465749     0.834337730491
         C            4.658371486503     2.480088476228     0.987184395365
         C            3.169546076774     0.311756312100    -0.197348385592
         C            4.711570657218    -1.197463078428    -1.583878962912
         C            7.434757966468    -0.282107733546    -1.445586907018
         C            0.387417284545     0.098120816551     0.110195556805
         C           -0.807777936391    -2.257513441304     0.531706358306
         C           -3.421712707118    -2.432587300291     0.839431200886
         C           -4.940324458837    -0.245201780672     0.751165493642
         C           -3.790835331446     2.116631326373     0.373814894702
         C           -1.152739766075     2.262283160575     0.072336317612
         C            4.020107227128    -3.390078058667    -3.261368812806
         H           -0.293714656516     4.122190147805    -0.218897123076
         H           -4.901377126294     3.854814673943     0.314387496069
         O           -7.475234321951    -0.631937718474     1.070548984800
         H           -4.343283751018    -4.252063271508     1.176076281320
         H            0.340804783699    -3.971884080981     0.665115691569
         H            7.860030695384     0.462674569961     2.567660857326
         H            8.808344123218     3.082583296557     0.671381803416
         H            8.800353246958    -1.848166852697    -1.226575225316
         H            7.937180224336     0.707568682404    -3.224859658707
         H            1.967824287587    -3.523563373624    -3.576845947250
         H            4.957255825263    -3.185173210980    -5.118091755616
         H            4.680094708238    -5.200639017366    -2.449599454800
         H            4.048150006172     2.904204868732     2.937113181808
         H            4.394833757392     4.233377702760    -0.129926151351
         C           -9.046940389660     1.534610572307     0.963036910199
         H          -10.980362113662     0.855461008706     1.299258073296
         H           -8.540150520953     2.926867545053     2.436661391007
         H           -8.957841685545     2.458163495886    -0.909056398481

	Presorting MO-basis TPDM.
	Sorting File: MO TPDM (AA|AA) nbuckets = 1
	Starting first half-transformation.
	Sorting half-transformed TPDM.
	First half integral transformation complete.


  -Total gradient:
     Atom            X                  Y                   Z
    ------   -----------------  -----------------  -----------------
       1        0.000005154968     0.000048343939    -0.000043401915
       2        0.000035778698    -0.000019075806     0.000059815269
       3       -0.000044636469    -0.000005462333     0.000024036149
       4       -0.000015682440    -0.000033644325     0.000041567357
       5        0.000010530890     0.000007892919     0.000030592909
       6        0.000034841624    -0.000002274378    -0.000023733869
       7       -0.000044917448    -0.000009333789    -0.000126415335
       8        0.000079713729    -0.000017454771     0.000049515176
       9       -0.000093203717     0.000095904105     0.000157775848
      10       -0.000015321793     0.000037077744     0.000088814076
      11       -0.000011556152    -0.000005343538    -0.000074414667
      12        0.000009925457    -0.000000258074     0.000008497790
      13       -0.000005486163    -0.000003266526     0.000014018541
      14       -0.000040626268     0.000017237596     0.000193670395
      15       -0.000263141017     0.000059776056    -0.000064282333
      16       -0.000011549469     0.000004606447     0.000024345755
      17       -0.000015534248     0.000000246111     0.000005375257
      18       -0.000014354109     0.000003931444    -0.000006121893
      19       -0.000027465325    -0.000027299541     0.000008578242
      20       -0.000027098236     0.000018539352    -0.000007194353
      21        0.000004955654     0.000021754206    -0.000012324055
      22        0.000006323940     0.000002702329    -0.000010451866
      23        0.000001287238    -0.000007891053     0.000010315900
      24       -0.000018015495     0.000007280727    -0.000005402248
      25        0.000027231205    -0.000000501198    -0.000034799427
      26        0.000003291360    -0.000012847919    -0.000006876126
      27       -0.000239652051     0.000227278637    -0.000357845233
      28        0.000539514292    -0.000014529691    -0.000039314259
      29        0.000346706096    -0.000090428889    -0.000139783885
      30       -0.000217014753    -0.000302959777     0.000235442805


			-----------------------------------------
			 OPTKING 2.0: for geometry optimizations 
			  - R.A. King,  Bethel University        
			-----------------------------------------

	Internal coordinates to be generated automatically.
	Detected frag 1 with atoms:  1 2 3 4 5 6 7 8 9 10 11 12 13 14 15 16 17 18 19 20
	 21 22 23 24 25 26 27 28 29 30
	---Fragment 1 Bond Connectivity---
	 1 : 2 5 18 19
	 2 : 1 3 25 26
	 3 : 2 4 6
	 4 : 3 5 12
	 5 : 1 4 20 21
	 6 : 3 7 11
	 7 : 6 8 17
	 8 : 7 9 16
	 9 : 8 10 15
	 10 : 9 11 14
	 11 : 6 10 13
	 12 : 4 22 23 24
	 13 : 11
	 14 : 10
	 15 : 9 27
	 16 : 8
	 17 : 7
	 18 : 1
	 19 : 1
	 20 : 5
	 21 : 5
	 22 : 12
	 23 : 12
	 24 : 12
	 25 : 2
	 26 : 2
	 27 : 15 28 29 30
	 28 : 27
	 29 : 27
	 30 : 27

	---Fragment 1 Geometry and Gradient---
	 C           7.4172372633        1.5392104657        0.8343377305
	 C           4.6583714865        2.4800884762        0.9871843954
	 C           3.1695460768        0.3117563121       -0.1973483856
	 C           4.7115706572       -1.1974630784       -1.5838789629
	 C           7.4347579665       -0.2821077335       -1.4455869070
	 C           0.3874172845        0.0981208166        0.1101955568
	 C          -0.8077779364       -2.2575134413        0.5317063583
	 C          -3.4217127071       -2.4325873003        0.8394312009
	 C          -4.9403244588       -0.2452017807        0.7511654936
	 C          -3.7908353314        2.1166313264        0.3738148947
	 C          -1.1527397661        2.2622831606        0.0723363176
	 C           4.0201072271       -3.3900780587       -3.2613688128
	 H          -0.2937146565        4.1221901478       -0.2188971231
	 H          -4.9013771263        3.8548146739        0.3143874961
	 O          -7.4752343220       -0.6319377185        1.0705489848
	 H          -4.3432837510       -4.2520632715        1.1760762813
	 H           0.3408047837       -3.9718840810        0.6651156916
	 H           7.8600306954        0.4626745700        2.5676608573
	 H           8.8083441232        3.0825832966        0.6713818034
	 H           8.8003532470       -1.8481668527       -1.2265752253
	 H           7.9371802243        0.7075686824       -3.2248596587
	 H           1.9678242876       -3.5235633736       -3.5768459472
	 H           4.9572558253       -3.1851732110       -5.1180917556
	 H           4.6800947082       -5.2006390174       -2.4495994548
	 H           4.0481500062        2.9042048687        2.9371131818
	 H           4.3948337574        4.2333777028       -0.1299261514
	 C          -9.0469403897        1.5346105723        0.9630369102
	 H         -10.9803621137        0.8554610087        1.2992580733
	 H          -8.5401505210        2.9268675451        2.4366613910
	 H          -8.9578416855        2.4581634959       -0.9090563985
	             0.0000051550        0.0000483439       -0.0000434019
	             0.0000357787       -0.0000190758        0.0000598153
	            -0.0000446365       -0.0000054623        0.0000240361
	            -0.0000156824       -0.0000336443        0.0000415674
	             0.0000105309        0.0000078929        0.0000305929
	             0.0000348416       -0.0000022744       -0.0000237339
	            -0.0000449174       -0.0000093338       -0.0001264153
	             0.0000797137       -0.0000174548        0.0000495152
	            -0.0000932037        0.0000959041        0.0001577758
	            -0.0000153218        0.0000370777        0.0000888141
	            -0.0000115562       -0.0000053435       -0.0000744147
	             0.0000099255       -0.0000002581        0.0000084978
	            -0.0000054862       -0.0000032665        0.0000140185
	            -0.0000406263        0.0000172376        0.0001936704
	            -0.0002631410        0.0000597761       -0.0000642823
	            -0.0000115495        0.0000046064        0.0000243458
	            -0.0000155342        0.0000002461        0.0000053753
	            -0.0000143541        0.0000039314       -0.0000061219
	            -0.0000274653       -0.0000272995        0.0000085782
	            -0.0000270982        0.0000185394       -0.0000071944
	             0.0000049557        0.0000217542       -0.0000123241
	             0.0000063239        0.0000027023       -0.0000104519
	             0.0000012872       -0.0000078911        0.0000103159
	            -0.0000180155        0.0000072807       -0.0000054022
	             0.0000272312       -0.0000005012       -0.0000347994
	             0.0000032914       -0.0000128479       -0.0000068761
	            -0.0002396521        0.0002272786       -0.0003578452
	             0.0005395143       -0.0000145297       -0.0000393143
	             0.0003467061       -0.0000904289       -0.0001397839
	            -0.0002170148       -0.0003029598        0.0002354428

	Previous optimization step data not found.  Starting new optimization.

	---Fragment 1 Intrafragment Coordinates---
	 - Coordinate -           - BOHR/RAD -       - ANG/DEG -
	 R(1,2)           =         2.918896	       1.544613
	 R(1,5)           =         2.918144	       1.544215
	 R(1,18)          =         2.087919	       1.104879
	 R(1,19)          =         2.084162	       1.102891
	 R(2,3)           =         2.884681	       1.526507
	 R(2,25)          =         2.086736	       1.104253
	 R(2,26)          =         2.095569	       1.108928
	 R(3,4)           =         2.564771	       1.357218
	 R(3,6)           =         2.807216	       1.485515
	 R(4,5)           =         2.876239	       1.522040
	 R(4,12)          =         2.845989	       1.506033
	 R(5,20)          =         2.089344	       1.105633
	 R(5,21)          =         2.097069	       1.109721
	 R(6,7)           =         2.674916	       1.415505
	 R(6,11)          =         2.656523	       1.405772
	 R(7,8)           =         2.637802	       1.395865
	 R(7,17)          =         2.067875	       1.094272
	 R(8,9)           =         2.664325	       1.409900
	 R(8,16)          =         2.067152	       1.093890
	 R(9,10)          =         2.653672	       1.404263
	 R(9,15)          =         2.584055	       1.367423
	 R(10,11)         =         2.659258	       1.407219
	 R(10,14)         =         2.063520	       1.091968
	 R(11,13)         =         2.069298	       1.095025
	 R(12,22)         =         2.080675	       1.101046
	 R(12,23)         =         2.089893	       1.105924
	 R(12,24)         =         2.091096	       1.106561
	 R(15,27)         =         2.678759	       1.417538
	 R(27,28)         =         2.076634	       1.098907
	 R(27,29)         =         2.089685	       1.105814
	 R(27,30)         =         2.089407	       1.105667
	 B(1,2,3)         =         1.796735	     102.945358
	 B(1,2,25)        =         1.972342	     113.006860
	 B(1,2,26)        =         1.939751	     111.139560
	 B(1,5,4)         =         1.803398	     103.327114
	 B(1,5,20)        =         1.971260	     112.944863
	 B(1,5,21)        =         1.949570	     111.702130
	 B(2,1,5)         =         1.821175	     104.345657
	 B(2,1,18)        =         1.899879	     108.855050
	 B(2,1,19)        =         1.978241	     113.344885
	 B(2,3,4)         =         1.932639	     110.732081
	 B(2,3,6)         =         2.122008	     121.582085
	 B(3,2,25)        =         1.966604	     112.678120
	 B(3,2,26)        =         1.923133	     110.187409
	 B(3,4,5)         =         1.934756	     110.853327
	 B(3,4,12)        =         2.247105	     128.749645
	 B(3,6,7)         =         2.125987	     121.810058
	 B(3,6,11)        =         2.107172	     120.732075
	 B(4,3,6)         =         2.227241	     127.611483
	 B(4,5,20)        =         1.966350	     112.663575
	 B(4,5,21)        =         1.913709	     109.647425
	 B(4,12,22)       =         1.958908	     112.237167
	 B(4,12,23)       =         1.916837	     109.826648
	 B(4,12,24)       =         1.940744	     111.196461
	 B(5,1,18)        =         1.902363	     108.997381
	 B(5,1,19)        =         1.979143	     113.396558
	 B(5,4,12)        =         2.098507	     120.235618
	 B(6,7,8)         =         2.117185	     121.305770
	 B(6,7,17)        =         2.085273	     119.477335
	 B(6,11,10)       =         2.128117	     121.932145
	 B(6,11,13)       =         2.086967	     119.574422
	 B(7,6,11)        =         2.049488	     117.427029
	 B(7,8,9)         =         2.101880	     120.428835
	 B(7,8,16)        =         2.116711	     121.278632
	 B(8,7,17)        =         2.080438	     119.200290
	 B(8,9,10)        =         2.081183	     119.243010
	 B(8,9,15)        =         2.017698	     115.605586
	 B(9,8,16)        =         2.064524	     118.288539
	 B(9,10,11)       =         2.088161	     119.642803
	 B(9,10,14)       =         2.118438	     121.377552
	 B(9,15,27)       =         2.037074	     116.715757
	 B(10,9,15)       =         2.184268	     125.149358
	 B(10,11,13)      =         2.068046	     118.490307
	 B(11,10,14)      =         2.076581	     118.979345
	 B(15,27,28)      =         1.849656	     105.977462
	 B(15,27,29)      =         1.947934	     111.608374
	 B(15,27,30)      =         1.948125	     111.619355
	 B(18,1,19)       =         1.880916	     107.768565
	 B(20,5,21)       =         1.860932	     106.623535
	 B(22,12,23)      =         1.890078	     108.293490
	 B(22,12,24)      =         1.890856	     108.338078
	 B(23,12,24)      =         1.863199	     106.753437
	 B(25,2,26)       =         1.866393	     106.936419
	 B(28,27,29)      =         1.906584	     109.239221
	 B(28,27,30)      =         1.906388	     109.228007
	 B(29,27,30)      =         1.903933	     109.087299
	 D(1,2,3,4)       =        -0.318758	     -18.263511
	 D(1,2,3,6)       =         2.873626	     164.646620
	 D(1,5,4,3)       =         0.274413	      15.722728
	 D(1,5,4,12)      =        -2.940928	    -168.502739
	 D(2,1,5,4)       =        -0.454818	     -26.059135
	 D(2,1,5,20)      =        -2.584557	    -148.084182
	 D(2,1,5,21)      =         1.600943	      91.727295
	 D(2,3,4,5)       =         0.028525	       1.634375
	 D(2,3,4,12)      =        -3.031352	    -173.683676
	 D(2,3,6,7)       =        -2.437528	    -139.660079
	 D(2,3,6,11)      =         0.667898	      38.267747
	 D(3,2,1,5)       =         0.468691	      26.854003
	 D(3,2,1,18)      =        -1.560369	     -89.402574
	 D(3,2,1,19)      =         2.630013	     150.688631
	 D(3,4,5,20)      =         2.407440	     137.936169
	 D(3,4,5,21)      =        -1.806273	    -103.491815
	 D(3,4,12,22)     =         0.180299	      10.330396
	 D(3,4,12,23)     =         2.283821	     130.853305
	 D(3,4,12,24)     =        -1.941006	    -111.211453
	 D(3,6,7,8)       =         3.131935	     179.446660
	 D(3,6,7,17)      =         0.016423	       0.940992
	 D(3,6,11,10)     =        -3.134988	    -179.621582
	 D(3,6,11,13)     =         0.018001	       1.031408
	 D(4,3,2,25)      =        -2.448968	    -140.315519
	 D(4,3,2,26)      =         1.751305	     100.342387
	 D(4,3,6,7)       =         0.764040	      43.776253
	 D(4,3,6,11)      =        -2.413719	    -138.295922
	 D(4,5,1,18)      =         1.572512	      90.098291
	 D(4,5,1,19)      =        -2.615558	    -149.860430
	 D(5,1,2,25)      =         2.595023	     148.683893
	 D(5,1,2,26)      =        -1.589719	     -91.084195
	 D(5,4,3,6)       =         3.115494	     178.504632
	 D(5,4,12,22)     =        -2.872890	    -164.604466
	 D(5,4,12,23)     =        -0.769368	     -44.081557
	 D(5,4,12,24)     =         1.288990	      73.853684
	 D(6,3,2,25)      =         0.743416	      42.594612
	 D(6,3,2,26)      =        -1.339496	     -76.747483
	 D(6,3,4,12)      =         0.055616	       3.186581
	 D(6,7,8,9)       =        -0.006627	      -0.379709
	 D(6,7,8,16)      =        -3.135311	    -179.640109
	 D(6,11,10,9)     =         0.011778	       0.674814
	 D(6,11,10,14)    =        -3.133241	    -179.521506
	 D(7,6,11,10)     =        -0.028021	      -1.605477
	 D(7,6,11,13)     =         3.124969	     179.047512
	 D(7,8,9,10)      =        -0.010456	      -0.599113
	 D(7,8,9,15)      =         3.139750	     179.894443
	 D(8,7,6,11)      =         0.025366	       1.453365
	 D(8,9,10,11)     =         0.007964	       0.456291
	 D(8,9,10,14)     =        -3.130118	    -179.342551
	 D(8,9,15,27)     =        -3.130279	    -179.351781
	 D(9,8,7,17)      =         3.108955	     178.130016
	 D(9,10,11,13)    =        -3.141093	    -179.971353
	 D(9,15,27,28)    =        -3.119927	    -178.758626
	 D(9,15,27,29)    =        -1.046111	     -59.937772
	 D(9,15,27,30)    =         1.089575	      62.428059
	 D(10,9,8,16)     =         3.118608	     178.683058
	 D(10,9,15,27)    =         0.020506	       1.174916
	 D(11,6,7,17)     =        -3.090146	    -177.052303
	 D(11,10,9,15)    =         3.140056	     179.911947
	 D(12,4,5,20)     =        -0.807901	     -46.289298
	 D(12,4,5,21)     =         1.261571	      72.282718
	 D(13,11,10,14)   =        -0.002926	      -0.167673
	 D(14,10,9,15)    =         0.001974	       0.113105
	 D(15,9,8,16)     =        -0.014371	      -0.823386
	 D(16,8,7,17)     =        -0.019729	      -1.130385
	 D(18,1,2,25)     =         0.565963	      32.427315
	 D(18,1,2,26)     =         2.664406	     152.659228
	 D(18,1,5,20)     =        -0.557227	     -31.926757
	 D(18,1,5,21)     =        -2.654912	    -152.115280
	 D(19,1,2,25)     =        -1.526840	     -87.481479
	 D(19,1,2,26)     =         0.571603	      32.750433
	 D(19,1,5,20)     =         1.537889	      88.114523
	 D(19,1,5,21)     =        -0.559797	     -32.074000
	 R(7,12)          =         6.243284	       3.303804

	Current energy   :      -578.5596106217

	Generating empirical Hessian (Schlegel '84) for each fragment.
	Taking RFO optimization step.
	Going to follow RFO solution 1.
	Using RFO vector 1.
	Norm of target step-size    0.23326
	Projected energy change by RFO approximation:        -0.0001907551

	Back-transformation to cartesian coordinates...
	Could not converge backtransformation.
	Using first guess instead.

	--- Internal Coordinate Step in ANG or DEG, aJ/ANG or AJ/DEG ---
	 ---------------------------------------------------------------------------
	   Coordinate                Previous        Force       Change         New 
	   ----------                --------       ------       ------       ------
	    1 R(1,2)          =      1.544613     0.000472     0.000124     1.544738
	    2 R(1,5)          =      1.544215     0.000271     0.000113     1.544328
	    3 R(1,18)         =      1.104879     0.000085     0.000043     1.104922
	    4 R(1,19)         =      1.102891     0.000322     0.000065     1.102956
	    5 R(2,3)          =      1.526507    -0.000158    -0.000030     1.526477
	    6 R(2,25)         =      1.104253     0.000335     0.000091     1.104345
	    7 R(2,26)         =      1.108928     0.000060     0.000036     1.108964
	    8 R(3,4)          =      1.357218     0.000162     0.000037     1.357256
	    9 R(3,6)          =      1.485515     0.000358     0.000065     1.485580
	   10 R(4,5)          =      1.522040    -0.000068    -0.000007     1.522033
	   11 R(4,12)         =      1.506033     0.000011     0.000025     1.506058
	   12 R(5,20)         =      1.105633     0.000267     0.000079     1.105712
	   13 R(5,21)         =      1.109721    -0.000181    -0.000013     1.109709
	   14 R(6,7)          =      1.415505    -0.000188    -0.000017     1.415488
	   15 R(6,11)         =      1.405772    -0.000116     0.000034     1.405806
	   16 R(7,8)          =      1.395865     0.000370     0.000062     1.395927
	   17 R(7,17)         =      1.094272     0.000070     0.000045     1.094318
	   18 R(8,9)          =      1.409900    -0.000008     0.000032     1.409932
	   19 R(8,16)         =      1.093890    -0.000042     0.000003     1.093893
	   20 R(9,10)         =      1.404263     0.000415     0.000093     1.404355
	   21 R(9,15)         =      1.367423     0.001567     0.000196     1.367619
	   22 R(10,11)        =      1.407219     0.000191     0.000036     1.407254
	   23 R(10,14)        =      1.091968    -0.000254     0.000038     1.092006
	   24 R(11,13)        =      1.095025     0.000059     0.000040     1.095065
	   25 R(12,22)        =      1.101046     0.000040     0.000012     1.101057
	   26 R(12,23)        =      1.105924     0.000078     0.000026     1.105950
	   27 R(12,24)        =      1.106561     0.000115     0.000043     1.106604
	   28 R(15,27)        =      1.417538     0.003184     0.001318     1.418856
	   29 R(27,28)        =      1.098907     0.004151     0.010187     1.109094
	   30 R(27,29)        =      1.105814     0.000616     0.011869     1.117683
	   31 R(27,30)        =      1.105667     0.002919     0.012116     1.117782
	   32 B(1,2,3)        =    102.945358    -0.000001    -0.009781   102.935577
	   33 B(1,2,25)       =    113.006860     0.000001     0.003007   113.009867
	   34 B(1,2,26)       =    111.139560     0.000001     0.009256   111.148816
	   35 B(1,5,4)        =    103.327114    -0.000001    -0.002370   103.324744
	   36 B(1,5,20)       =    112.944863    -0.000000    -0.004192   112.940671
	   37 B(1,5,21)       =    111.702130     0.000001     0.007768   111.709898
	   38 B(2,1,5)        =    104.345657     0.000000     0.001899   104.347556
	   39 B(2,1,18)       =    108.855050     0.000001     0.007611   108.862661
	   40 B(2,1,19)       =    113.344885    -0.000000    -0.002267   113.342618
	   41 B(2,3,4)        =    110.732081     0.000001     0.002405   110.734486
	   42 B(2,3,6)        =    121.582085    -0.000001    -0.000824   121.581261
	   43 B(3,2,25)       =    112.678120    -0.000001    -0.010325   112.667794
	   44 B(3,2,26)       =    110.187409     0.000001     0.009299   110.196707
	   45 B(3,4,5)        =    110.853327     0.000001     0.004406   110.857733
	   46 B(3,4,12)       =    128.749645    -0.000001    -0.001277   128.748368
	   47 B(3,6,7)        =    121.810058    -0.000001    -0.003173   121.806885
	   48 B(3,6,11)       =    120.732075     0.000002     0.007761   120.739835
	   49 B(4,3,6)        =    127.611483     0.000000    -0.000175   127.611308
	   50 B(4,5,20)       =    112.663575     0.000001     0.003820   112.667394
	   51 B(4,5,21)       =    109.647425    -0.000000    -0.002731   109.644693
	   52 B(4,12,22)      =    112.237167    -0.000000    -0.001104   112.236064
	   53 B(4,12,23)      =    109.826648    -0.000000    -0.000079   109.826569
	   54 B(4,12,24)      =    111.196461    -0.000001    -0.003715   111.192746
	   55 B(5,1,18)       =    108.997381    -0.000000     0.001237   108.998618
	   56 B(5,1,19)       =    113.396558    -0.000000    -0.006106   113.390452
	   57 B(5,4,12)       =    120.235618    -0.000000     0.002166   120.237784
	   58 B(6,7,8)        =    121.305770     0.000000    -0.002780   121.302990
	   59 B(6,7,17)       =    119.477335    -0.000001    -0.002432   119.474903
	   60 B(6,11,10)      =    121.932145     0.000001     0.003002   121.935147
	   61 B(6,11,13)      =    119.574422    -0.000001    -0.001447   119.572975
	   62 B(7,6,11)       =    117.427029    -0.000001    -0.001397   117.425632
	   63 B(7,8,9)        =    120.428835     0.000003     0.010857   120.439692
	   64 B(7,8,16)       =    121.278632    -0.000003    -0.012660   121.265971
	   65 B(8,7,17)       =    119.200290     0.000001     0.007133   119.207423
	   66 B(8,9,10)       =    119.243010    -0.000005    -0.011716   119.231293
	   67 B(8,9,15)       =    115.605586    -0.000011    -0.034942   115.570644
	   68 B(9,8,16)       =    118.288539    -0.000000     0.000133   118.288672
	   69 B(9,10,11)      =    119.642803     0.000002     0.003902   119.646705
	   70 B(9,10,14)      =    121.377552     0.000003     0.018929   121.396481
	   71 B(9,15,27)      =    116.715757     0.000049     0.128273   116.844030
	   72 B(10,9,15)      =    125.149358     0.000016     0.047191   125.196549
	   73 B(10,11,13)     =    118.490307    -0.000000    -0.002623   118.487684
	   74 B(11,10,14)     =    118.979345    -0.000005    -0.022535   118.956811
	   75 B(15,27,28)     =    105.977462     0.000018    -0.325272   105.652190
	   76 B(15,27,29)     =    111.608374     0.000024     0.046434   111.654808
	   77 B(15,27,30)     =    111.619355    -0.000007    -0.141948   111.477407
	   78 B(18,1,19)      =    107.768565    -0.000000    -0.001615   107.766950
	   79 B(20,5,21)      =    106.623535    -0.000000    -0.002002   106.621533
	   80 B(22,12,23)     =    108.293490     0.000000     0.001380   108.294870
	   81 B(22,12,24)     =    108.338078     0.000001     0.002824   108.340902
	   82 B(23,12,24)     =    106.753437     0.000000     0.000945   106.754382
	   83 B(25,2,26)      =    106.936419    -0.000001    -0.000969   106.935450
	   84 B(28,27,29)     =    109.239221    -0.000024     0.095823   109.335044
	   85 B(28,27,30)     =    109.228007    -0.000000     0.257098   109.485105
	   86 B(29,27,30)     =    109.087299    -0.000011     0.070168   109.157467
	   87 D(1,2,3,4)      =    -18.263511    -0.000000    -0.048634   -18.312145
	   88 D(1,2,3,6)      =    164.646620    -0.000000    -0.076251   164.570369
	   89 D(1,5,4,3)      =     15.722728    -0.000000    -0.045572    15.677156
	   90 D(1,5,4,12)     =   -168.502739     0.000000     0.024122  -168.478617
	   91 D(2,1,5,4)      =    -26.059135    -0.000000     0.013249   -26.045885
	   92 D(2,1,5,20)     =   -148.084182    -0.000000     0.012426  -148.071757
	   93 D(2,1,5,21)     =     91.727295    -0.000000     0.012380    91.739675
	   94 D(2,3,4,5)      =      1.634375     0.000000     0.060447     1.694823
	   95 D(2,3,4,12)     =   -173.683676     0.000000    -0.016991  -173.700668
	   96 D(2,3,6,7)      =   -139.660079     0.000000     0.068294  -139.591785
	   97 D(2,3,6,11)     =     38.267747     0.000001     0.178343    38.446090
	   98 D(3,2,1,5)      =     26.854003     0.000000     0.018131    26.872134
	   99 D(3,2,1,18)     =    -89.402574     0.000000     0.012292   -89.390282
	  100 D(3,2,1,19)     =    150.688631     0.000000     0.010506   150.699136
	  101 D(3,4,5,20)     =    137.936169    -0.000000    -0.050103   137.886067
	  102 D(3,4,5,21)     =   -103.491815    -0.000000    -0.052025  -103.543839
	  103 D(3,4,12,22)    =     10.330396    -0.000000    -0.092768    10.237629
	  104 D(3,4,12,23)    =    130.853305    -0.000000    -0.091804   130.761502
	  105 D(3,4,12,24)    =   -111.211453    -0.000000    -0.092966  -111.304419
	  106 D(3,6,7,8)      =    179.446660     0.000001     0.121716   179.568376
	  107 D(3,6,7,17)     =      0.940992     0.000000     0.032530     0.973522
	  108 D(3,6,11,10)    =   -179.621582    -0.000000    -0.069786  -179.691367
	  109 D(3,6,11,13)    =      1.031408     0.000000     0.033665     1.065073
	  110 D(4,3,2,25)     =   -140.315519    -0.000000    -0.040538  -140.356057
	  111 D(4,3,2,26)     =    100.342387     0.000000    -0.038908   100.303479
	  112 D(4,3,6,7)      =     43.776253    -0.000000     0.035610    43.811863
	  113 D(4,3,6,11)     =   -138.295922     0.000000     0.145659  -138.150263
	  114 D(4,5,1,18)     =     90.098291     0.000000     0.023538    90.121829
	  115 D(4,5,1,19)     =   -149.860430     0.000000     0.018400  -149.842030
	  116 D(5,1,2,25)     =    148.683893    -0.000000     0.000955   148.684847
	  117 D(5,1,2,26)     =    -91.084195    -0.000000     0.008431   -91.075764
	  118 D(5,4,3,6)      =    178.504632     0.000000     0.090132   178.594765
	  119 D(5,4,12,22)    =   -164.604466    -0.000000    -0.176612  -164.781078
	  120 D(5,4,12,23)    =    -44.081557    -0.000000    -0.175648   -44.257205
	  121 D(5,4,12,24)    =     73.853684    -0.000000    -0.176810    73.676874
	  122 D(6,3,2,25)     =     42.594612    -0.000000    -0.068155    42.526457
	  123 D(6,3,2,26)     =    -76.747483    -0.000000    -0.066525   -76.814007
	  124 D(6,3,4,12)     =      3.186581     0.000000     0.012694     3.199274
	  125 D(6,7,8,9)      =     -0.379709    -0.000001    -0.166601    -0.546311
	  126 D(6,7,8,16)     =   -179.640109    -0.000000    -0.025529  -179.665638
	  127 D(6,11,10,9)    =      0.674814     0.000000     0.065246     0.740060
	  128 D(6,11,10,14)   =   -179.521506     0.000001     0.239751  -179.281755
	  129 D(7,6,11,10)    =     -1.605477     0.000000     0.035531    -1.569947
	  130 D(7,6,11,13)    =    179.047512     0.000001     0.138982   179.186494
	  131 D(7,8,9,10)     =     -0.599113     0.000001     0.265368    -0.333745
	  132 D(7,8,9,15)     =    179.894443     0.000001     0.196142   180.090585
	  133 D(8,7,6,11)     =      1.453365     0.000000     0.014969     1.468334
	  134 D(8,9,10,11)    =      0.456291    -0.000001    -0.214119     0.242172
	  135 D(8,9,10,14)    =   -179.342551    -0.000002    -0.392915  -179.735466
	  136 D(8,9,15,27)    =   -179.351781    -0.000007    -2.615423  -181.967204
	  137 D(9,8,7,17)     =    178.130016    -0.000000    -0.077789   178.052227
	  138 D(9,10,11,13)   =   -179.971353    -0.000000    -0.037116  -180.008469
	  139 D(9,15,27,28)   =   -178.758626    -0.000005    -7.288049  -186.046675
	  140 D(9,15,27,29)   =    -59.937772    -0.000007    -7.345353   -67.283126
	  141 D(9,15,27,30)   =     62.428059    -0.000007    -7.323369    55.104691
	  142 D(10,9,8,16)    =    178.683058     0.000001     0.128333   178.811391
	  143 D(10,9,15,27)   =      1.174916    -0.000008    -2.688983    -1.514067
	  144 D(11,6,7,17)    =   -177.052303    -0.000000    -0.074217  -177.126520
	  145 D(11,10,9,15)   =    179.911947    -0.000001    -0.138178   179.773769
	  146 D(12,4,5,20)    =    -46.289298    -0.000000     0.019591   -46.269706
	  147 D(12,4,5,21)    =     72.282718    -0.000000     0.017669    72.300387
	  148 D(13,11,10,14)  =     -0.167673     0.000001     0.137389    -0.030284
	  149 D(14,10,9,15)   =      0.113105    -0.000002    -0.316974    -0.203869
	  150 D(15,9,8,16)    =     -0.823386     0.000000     0.059107    -0.764279
	  151 D(16,8,7,17)    =     -1.130385     0.000000     0.063284    -1.067101
	  152 D(18,1,2,25)    =     32.427315    -0.000000    -0.004884    32.422431
	  153 D(18,1,2,26)    =    152.659228    -0.000000     0.002592   152.661820
	  154 D(18,1,5,20)    =    -31.926757     0.000000     0.022715   -31.904042
	  155 D(18,1,5,21)    =   -152.115280     0.000000     0.022669  -152.092611
	  156 D(19,1,2,25)    =    -87.481479    -0.000000    -0.006671   -87.488150
	  157 D(19,1,2,26)    =     32.750433    -0.000000     0.000806    32.751238
	  158 D(19,1,5,20)    =     88.114523    -0.000000     0.017576    88.132099
	  159 D(19,1,5,21)    =    -32.074000    -0.000000     0.017531   -32.056470
	  160 R(7,12)         =      3.303804     0.000048     0.000476     3.304279
	 ---------------------------------------------------------------------------
	Successfully symmetrized geometry.

  ==> Convergence Check <==

  Measures of convergence in internal coordinates in au.
  Criteria marked as inactive (o), active & met (*), and active & unmet ( ).
  --------------------------------------------------------------------------------------------- ~
   Step     Total Energy     Delta E     MAX Force     RMS Force      MAX Disp      RMS Disp    ~
  --------------------------------------------------------------------------------------------- ~
    Convergence Criteria    1.00e-06 *    3.00e-04 *             o    1.20e-03 *             o  ~
  --------------------------------------------------------------------------------------------- ~
      1    -578.55961062   -5.79e+02      6.39e-04      1.18e-04 o    1.28e-01      1.85e-02 o  ~
  ---------------------------------------------------------------------------------------------

	Writing optimization data to binary file.
	Structure for next step:
	Cartesian Geometry (in Angstrom)
	    C     3.9228767509   0.8189500923   0.4396929030
	    C     2.4625453498   1.3173119187   0.5123686542
	    C     1.6771453695   0.1658168680  -0.1099959199
	    C     2.4956849115  -0.6367272567  -0.8366724759
	    C     3.9365301991  -0.1521359687  -0.7610380314
	    C     0.2045137921   0.0526034456   0.0496480981
	    C    -0.4274146044  -1.1929639612   0.2795063764
	    C    -1.8113202813  -1.2860302517   0.4368444984
	    C    -2.6159503165  -0.1295836469   0.3810801720
	    C    -2.0083737828   1.1192077984   0.1723098951
	    C    -0.6118165027   1.1966556843   0.0174084028
	    C     2.1329119351  -1.8026193027  -1.7183200129
	    H    -0.1580007019   2.1800101011  -0.1445590523
	    H    -2.5970566386   2.0378499049   0.1272878767
	    O    -3.9574824730  -0.3351799868   0.5496103240
	    H    -2.2984848870  -2.2482081966   0.6198351712
	    H     0.1811229537  -2.0990489406   0.3583919698
	    H     4.1540888925   0.2548245544   1.3611895880
	    H     4.6593173499   1.6352300840   0.3510706875
	    H     4.6586905177  -0.9802640614  -0.6373918211
	    H     4.2059794652   0.3657587944  -1.7047728896
	    H     1.0472341015  -1.8759219396  -1.8864207881
	    H     2.6301119410  -1.6989636834  -2.7007522346
	    H     2.4831056946  -2.7577211246  -1.2827552792
	    H     2.1358594924   1.5479591037   1.5417642154
	    H     2.3249850342   2.2415026857  -0.0849164188
	    C    -4.7879787161   0.8151942435   0.5413816240
	    H    -5.8285920245   0.4332674746   0.5780702311
	    H    -4.6008308359   1.4653652100   1.4310270027
	    H    -4.6443014035   1.4170350180  -0.3895219704
			--------------------------
			 OPTKING Finished Execution 
			--------------------------

    Structure for next step:
    Molecular point group: c1
    Full point group: C1

    Geometry (in Angstrom), charge = 0, multiplicity = 1:

    C            3.923135918714     0.818946537385     0.444159104861
    C            2.462804511839     1.317308365673     0.516834856313
    C            1.677404528488     0.165813310494    -0.105529720258
    C            2.495944073707    -0.636730817355    -0.832206279030
    C            3.936789366922    -0.152139527410    -0.756571834257
    C            0.204772945248     0.052599887677     0.054114298385
    C           -0.427155453657    -1.192967524100     0.283972577667
    C           -1.811061136037    -1.286033814918     0.441310700221
    C           -2.615691174385    -0.129587205564     0.385546373640
    C           -2.008114638324     1.119204244672     0.176776095934
    C           -0.611557352689     1.196652130801     0.021874602990
    C            2.133171095892    -1.802622867955    -1.713853819542
    H           -0.157741550144     2.180006551512    -0.140092852789
    H           -2.596797496400     2.037846354744     0.131754077353
    O           -3.957223336144    -0.335183546316     0.554076526305
    H           -2.298225743645    -2.248211763590     0.624301373787
    H            0.181382106801    -2.099052507037     0.362858171328
    H            4.154348061204     0.254820997195     1.365655793443
    H            4.659576520646     1.635226532219     0.355536888957
    H            4.658949688441    -0.980267623388    -0.632925623449
    H            4.206238634106     0.365755237661    -1.700306696168
    H            1.047493258040    -1.875925505085    -1.881954595395
    H            2.630371103728    -1.698967248238    -2.696286045106
    H            2.483364856758    -2.757724693594    -1.278289084139
    H            2.136118653151     1.547955551631     1.546230421578
    H            2.325244195774     2.241499136363    -0.080450219037
    C           -4.787719582569     0.815190688558     0.545847826219
    H           -5.828332895066     0.433263918122     0.582536433472
    H           -4.600571701618     1.465361657638     1.435493208482
    H           -4.644042269409     1.417031465383    -0.385055771814


Scratch directory: /scratch1/maxbuskirk/
gradient() will perform analytic gradient computation.

*** tstart() called on skylm006.palmetto.clemson.edu
*** at Fri Feb 18 11:11:57 2022

   => Loading Basis Set <=

    Name: CC-PVDZ
    Role: ORBITAL
    Keyword: BASIS
    atoms 1-12, 27            entry C          line   138 file /home/maxbuskirk/.conda/envs/psifour/share/psi4/basis/cc-pvdz.gbs 
    atoms 13-14, 16-26, 28-30 entry H          line    22 file /home/maxbuskirk/.conda/envs/psifour/share/psi4/basis/cc-pvdz.gbs 
    atoms 15                  entry O          line   198 file /home/maxbuskirk/.conda/envs/psifour/share/psi4/basis/cc-pvdz.gbs 


         ---------------------------------------------------------
                                   SCF
               by Justin Turney, Rob Parrish, Andy Simmonett
                          and Daniel G. A. Smith
                              RHF Reference
                        1 Threads,  59127 MiB Core
         ---------------------------------------------------------

  ==> Geometry <==

    Molecular point group: c1
    Full point group: C1

    Geometry (in Angstrom), charge = 0, multiplicity = 1:

       Center              X                  Y                   Z               Mass       
    ------------   -----------------  -----------------  -----------------  -----------------
         C            3.923135918714     0.818946537385     0.444159104861    12.000000000000
         C            2.462804511839     1.317308365673     0.516834856313    12.000000000000
         C            1.677404528488     0.165813310494    -0.105529720258    12.000000000000
         C            2.495944073707    -0.636730817355    -0.832206279030    12.000000000000
         C            3.936789366922    -0.152139527410    -0.756571834257    12.000000000000
         C            0.204772945248     0.052599887677     0.054114298385    12.000000000000
         C           -0.427155453657    -1.192967524100     0.283972577667    12.000000000000
         C           -1.811061136037    -1.286033814918     0.441310700221    12.000000000000
         C           -2.615691174385    -0.129587205564     0.385546373640    12.000000000000
         C           -2.008114638324     1.119204244672     0.176776095934    12.000000000000
         C           -0.611557352689     1.196652130801     0.021874602990    12.000000000000
         C            2.133171095892    -1.802622867955    -1.713853819542    12.000000000000
         H           -0.157741550144     2.180006551512    -0.140092852789     1.007825032230
         H           -2.596797496400     2.037846354744     0.131754077353     1.007825032230
         O           -3.957223336144    -0.335183546316     0.554076526305    15.994914619570
         H           -2.298225743645    -2.248211763590     0.624301373787     1.007825032230
         H            0.181382106801    -2.099052507037     0.362858171328     1.007825032230
         H            4.154348061204     0.254820997195     1.365655793443     1.007825032230
         H            4.659576520646     1.635226532219     0.355536888957     1.007825032230
         H            4.658949688441    -0.980267623388    -0.632925623449     1.007825032230
         H            4.206238634106     0.365755237661    -1.700306696168     1.007825032230
         H            1.047493258040    -1.875925505085    -1.881954595395     1.007825032230
         H            2.630371103728    -1.698967248238    -2.696286045106     1.007825032230
         H            2.483364856758    -2.757724693594    -1.278289084139     1.007825032230
         H            2.136118653151     1.547955551631     1.546230421578     1.007825032230
         H            2.325244195774     2.241499136363    -0.080450219037     1.007825032230
         C           -4.787719582569     0.815190688558     0.545847826219    12.000000000000
         H           -5.828332895066     0.433263918122     0.582536433472     1.007825032230
         H           -4.600571701618     1.465361657638     1.435493208482     1.007825032230
         H           -4.644042269409     1.417031465383    -0.385055771814     1.007825032230

  Running in c1 symmetry.

  Rotational constants: A =      0.06267  B =      0.01072  C =      0.00963 [cm^-1]
  Rotational constants: A =   1878.68708  B =    321.33931  C =    288.63497 [MHz]
  Nuclear repulsion =  840.847428217408833

  Charge       = 0
  Multiplicity = 1
  Electrons    = 102
  Nalpha       = 51
  Nbeta        = 51

  ==> Algorithm <==

  SCF Algorithm Type is DF.
  DIIS enabled.
  MOM disabled.
  Fractional occupation disabled.
  Guess Type is READ.
  Energy threshold   = 1.00e-10
  Density threshold  = 1.00e-10
  Integral threshold = 1.00e-12

  ==> Primary Basis <==

  Basis Set: CC-PVDZ
    Blend: CC-PVDZ
    Number of shells: 132
    Number of basis functions: 276
    Number of Cartesian functions: 290
    Spherical Harmonics?: true
    Max angular momentum: 2

   => Loading Basis Set <=

    Name: (CC-PVDZ AUX)
    Role: JKFIT
    Keyword: DF_BASIS_SCF
    atoms 1-12, 27            entry C          line   121 file /home/maxbuskirk/.conda/envs/psifour/share/psi4/basis/cc-pvdz-jkfit.gbs 
    atoms 13-14, 16-26, 28-30 entry H          line    51 file /home/maxbuskirk/.conda/envs/psifour/share/psi4/basis/cc-pvdz-jkfit.gbs 
    atoms 15                  entry O          line   221 file /home/maxbuskirk/.conda/envs/psifour/share/psi4/basis/cc-pvdz-jkfit.gbs 

   => Loading Basis Set <=

    Name: CC-PVDZ
    Role: ORBITAL
    Keyword: BASIS
    atoms 1-12, 27            entry C          line   138 file /home/maxbuskirk/.conda/envs/psifour/share/psi4/basis/cc-pvdz.gbs 
    atoms 13-14, 16-26, 28-30 entry H          line    22 file /home/maxbuskirk/.conda/envs/psifour/share/psi4/basis/cc-pvdz.gbs 
    atoms 15                  entry O          line   198 file /home/maxbuskirk/.conda/envs/psifour/share/psi4/basis/cc-pvdz.gbs 

  Reading orbitals from file /scratch1/maxbuskirk/pOMe.mol.1211300.180.npy, no projection.

  ==> Integral Setup <==

  DFHelper Memory: AOs need 0.659 GiB; user supplied 43.306 GiB. Using in-core AOs.

  ==> MemDFJK: Density-Fitted J/K Matrices <==

    J tasked:                   Yes
    K tasked:                   Yes
    wK tasked:                   No
    OpenMP threads:               1
    Memory [MiB]:             44345
    Algorithm:                 Core
    Schwarz Cutoff:           1E-12
    Mask sparsity (%):      17.2732
    Fitting Condition:        1E-10

   => Auxiliary Basis Set <=

  Basis Set: (CC-PVDZ AUX)
    Blend: CC-PVDZ-JKFIT
    Number of shells: 480
    Number of basis functions: 1348
    Number of Cartesian functions: 1534
    Spherical Harmonics?: true
    Max angular momentum: 3

  Minimum eigenvalue in the overlap matrix is 3.2494020537E-04.
  Reciprocal condition number of the overlap matrix is 5.0657143135E-05.
    Using symmetric orthogonalization.

  ==> Pre-Iterations <==

  SCF Guess: Orbitals guess was supplied from a previous computation.

   -------------------------------------------------------
    Irrep   Nso     Nmo     Nalpha   Nbeta   Ndocc  Nsocc
   -------------------------------------------------------
     A        276     276      51      51      51       0
   -------------------------------------------------------
    Total     276     276      51      51      51       0
   -------------------------------------------------------

  ==> Iterations <==

                           Total Energy        Delta E     RMS |[F,P]|

   @DF-RHF iter   0:  -576.45041976603716   -5.76450e+02   3.55626e-04 
   @DF-RHF iter   1:  -576.48237710618059   -3.19573e-02   9.34387e-05 DIIS
   @DF-RHF iter   2:  -576.48296570183652   -5.88596e-04   3.62660e-05 DIIS
   @DF-RHF iter   3:  -576.48304715383244   -8.14520e-05   1.54193e-05 DIIS
   @DF-RHF iter   4:  -576.48306384592922   -1.66921e-05   4.00029e-06 DIIS
   @DF-RHF iter   5:  -576.48306465366443   -8.07735e-07   1.25788e-06 DIIS
   @DF-RHF iter   6:  -576.48306476053119   -1.06867e-07   3.23534e-07 DIIS
   @DF-RHF iter   7:  -576.48306476855203   -8.02083e-09   1.48532e-07 DIIS
   @DF-RHF iter   8:  -576.48306477079529   -2.24327e-09   5.06577e-08 DIIS
   @DF-RHF iter   9:  -576.48306477117262   -3.77327e-10   2.37604e-08 DIIS
   @DF-RHF iter  10:  -576.48306477124061   -6.79847e-11   9.63734e-09 DIIS
   @DF-RHF iter  11:  -576.48306477126459   -2.39879e-11   4.34894e-09 DIIS
   @DF-RHF iter  12:  -576.48306477126630   -1.70530e-12   1.73415e-09 DIIS
   @DF-RHF iter  13:  -576.48306477126744   -1.13687e-12   5.47315e-10 DIIS
   @DF-RHF iter  14:  -576.48306477126800   -5.68434e-13   2.43976e-10 DIIS
   @DF-RHF iter  15:  -576.48306477126721    7.95808e-13   1.03953e-10 DIIS
   @DF-RHF iter  16:  -576.48306477126823   -1.02318e-12   2.91379e-11 DIIS
  Energy and wave function converged.


  ==> Post-Iterations <==

    Orbital Energies [Eh]
    ---------------------

    Doubly Occupied:                                                      

       1A    -20.585022     2A    -11.302509     3A    -11.297011  
       4A    -11.243960     5A    -11.242510     6A    -11.238386  
       7A    -11.237392     8A    -11.232609     9A    -11.231301  
      10A    -11.228463    11A    -11.227980    12A    -11.227326  
      13A    -11.227177    14A    -11.224950    15A     -1.408390  
      16A     -1.153309    17A     -1.123689    18A     -1.027428  
      19A     -1.014198    20A     -1.001142    21A     -0.957260  
      22A     -0.921566    23A     -0.895724    24A     -0.830390  
      25A     -0.804437    26A     -0.778056    27A     -0.718310  
[...]
	   88 D(1,2,3,6)      =    164.619592    -0.000000    -0.006522   164.613070
	   89 D(1,5,4,3)      =     15.702627    -0.000000    -0.007586    15.695041
	   90 D(1,5,4,12)     =   -168.501596     0.000000     0.000719  -168.500876
	   91 D(2,1,5,4)      =    -26.040066     0.000000     0.005369   -26.034698
	   92 D(2,1,5,20)     =   -148.057368    -0.000000     0.004660  -148.052708
	   93 D(2,1,5,21)     =     91.757781    -0.000000     0.005262    91.763043
	   94 D(2,3,4,5)      =      1.647680     0.000000     0.006724     1.654404
	   95 D(2,3,4,12)     =   -173.694592     0.000000    -0.002570  -173.697162
	   96 D(2,3,6,7)      =   -139.448676     0.000000     0.046844  -139.401833
	   97 D(2,3,6,11)     =     38.508971     0.000000     0.044112    38.553084
	   98 D(3,2,1,5)      =     26.841075     0.000000    -0.001926    26.839148
	   99 D(3,2,1,18)     =    -89.421072     0.000000    -0.003057   -89.424129
	  100 D(3,2,1,19)     =    150.669613     0.000000    -0.002605   150.667008
	  101 D(3,4,5,20)     =    137.904715    -0.000000    -0.007893   137.896822
	  102 D(3,4,5,21)     =   -103.523768    -0.000000    -0.007809  -103.531578
	  103 D(3,4,12,22)    =     10.065379    -0.000000    -0.046723    10.018656
	  104 D(3,4,12,23)    =    130.590294    -0.000000    -0.046906   130.543388
	  105 D(3,4,12,24)    =   -111.480570    -0.000000    -0.048259  -111.528829
	  106 D(3,6,7,8)      =    179.478702     0.000000     0.002860   179.481561
	  107 D(3,6,7,17)     =      0.937523    -0.000000    -0.003764     0.933759
	  108 D(3,6,11,10)    =   -179.635675    -0.000000    -0.002158  -179.637833
	  109 D(3,6,11,13)    =      1.052392    -0.000000    -0.001315     1.051077
	  110 D(4,3,2,25)     =   -140.307576    -0.000000    -0.001723  -140.309299
	  111 D(4,3,2,26)     =    100.354070     0.000000    -0.000993   100.353077
	  112 D(4,3,6,7)      =     43.955314     0.000000     0.042526    43.997840
	  113 D(4,3,6,11)     =   -138.087038     0.000000     0.039795  -138.047243
	  114 D(4,5,1,18)     =     90.126751     0.000000     0.006575    90.133326
	  115 D(4,5,1,19)     =   -149.838983     0.000000     0.005871  -149.833112
	  116 D(5,1,2,25)     =    148.652920    -0.000000    -0.004048   148.648872
	  117 D(5,1,2,26)     =    -91.111628    -0.000000    -0.003491   -91.115119
	  118 D(5,4,3,6)      =    178.547299     0.000000     0.010636   178.557935
	  119 D(5,4,12,22)    =   -164.895543    -0.000000    -0.056740  -164.952283
	  120 D(5,4,12,23)    =    -44.370628    -0.000000    -0.056923   -44.427552
	  121 D(5,4,12,24)    =     73.558508    -0.000000    -0.058276    73.500232
	  122 D(6,3,2,25)     =     42.575645    -0.000000    -0.005320    42.570325
	  123 D(6,3,2,26)     =    -76.762709     0.000000    -0.004590   -76.767299
	  124 D(6,3,4,12)     =      3.205028     0.000000     0.001342     3.206370
	  125 D(6,7,8,9)      =     -0.435232    -0.000000     0.000430    -0.434802
	  126 D(6,7,8,16)     =   -179.653455    -0.000000     0.000200  -179.653254
	  127 D(6,11,10,9)    =      0.695902    -0.000000    -0.001746     0.694156
	  128 D(6,11,10,14)   =   -179.439918    -0.000000    -0.003686  -179.443604
	  129 D(7,6,11,10)    =     -1.591323    -0.000000    -0.004826    -1.596149
	  130 D(7,6,11,13)    =    179.096744    -0.000000    -0.003983   179.092761
	  131 D(7,8,9,10)     =     -0.508916    -0.000000    -0.007116    -0.516032
	  132 D(7,8,9,15)     =    179.961917     0.000000     0.012234   179.974151
	  133 D(8,7,6,11)     =      1.456396     0.000000     0.005487     1.461883
	  134 D(8,9,10,11)    =      0.383496     0.000000     0.007725     0.391221
	  135 D(8,9,10,14)    =   -179.477314     0.000000     0.009717  -179.467597
	  136 D(8,9,15,27)    =    179.649789    -0.000000    -0.057114   179.592675
	  137 D(9,8,7,17)     =    178.109679     0.000000     0.006986   178.116665
	  138 D(9,10,11,13)   =   -179.985009    -0.000000    -0.002590  -179.987600
	  139 D(9,15,27,28)   =    179.927177    -0.000000     0.021557   179.948734
	  140 D(9,15,27,29)   =    -61.252329     0.000000     0.025411   -61.226919
	  141 D(9,15,27,30)   =     61.099025    -0.000000     0.024153    61.123178
	  142 D(10,9,8,16)    =    178.732228    -0.000000    -0.006898   178.725331
	  143 D(10,9,15,27)   =      0.152312    -0.000000    -0.036422     0.115890
	  144 D(11,6,7,17)    =   -177.084783    -0.000000    -0.001137  -177.085920
	  145 D(11,10,9,15)   =    179.864061    -0.000000    -0.013668   179.850393
	  146 D(12,4,5,20)    =    -46.299507    -0.000000     0.000413   -46.299095
	  147 D(12,4,5,21)    =     72.272009     0.000000     0.000496    72.272505
	  148 D(13,11,10,14)  =     -0.120830    -0.000000    -0.004530    -0.125360
	  149 D(14,10,9,15)   =      0.003250    -0.000000    -0.011676    -0.008426
	  150 D(15,9,8,16)    =     -0.796939     0.000000     0.012452    -0.784487
	  151 D(16,8,7,17)    =     -1.108544     0.000000     0.006757    -1.101787
	  152 D(18,1,2,25)    =     32.390774    -0.000000    -0.005179    32.385595
	  153 D(18,1,2,26)    =    152.626226    -0.000000    -0.004622   152.621604
	  154 D(18,1,5,20)    =    -31.890550     0.000000     0.005866   -31.884684
	  155 D(18,1,5,21)    =   -152.075402     0.000000     0.006468  -152.068933
	  156 D(19,1,2,25)    =    -87.518541    -0.000000    -0.004727   -87.523268
	  157 D(19,1,2,26)    =     32.716911    -0.000000    -0.004170    32.712741
	  158 D(19,1,5,20)    =     88.143715    -0.000000     0.005162    88.148877
	  159 D(19,1,5,21)    =    -32.041136    -0.000000     0.005764   -32.035372
	  160 R(7,12)         =      3.305357     0.000055     0.000416     3.305772
	 ---------------------------------------------------------------------------
	Successfully symmetrized geometry.

  ==> Convergence Check <==

  Measures of convergence in internal coordinates in au.
  Criteria marked as inactive (o), active & met (*), and active & unmet ( ).
  ---------------------------------------------------------------------------------------------
   Step     Total Energy     Delta E     MAX Force     RMS Force      MAX Disp      RMS Disp   
  ---------------------------------------------------------------------------------------------
    Convergence Criteria    1.00e-06 *    3.00e-04 *             o    1.20e-03 *             o
  ---------------------------------------------------------------------------------------------
      6    -578.55963357   -2.01e-06      6.29e-05 *    7.88e-06 o    1.02e-03 *    2.57e-04 o  ~
  ---------------------------------------------------------------------------------------------


  **** Optimization is complete! (in 6 steps) ****

  ==> Optimization Summary <==

  Measures of convergence in internal coordinates in au.
  --------------------------------------------------------------------------------------------------------------- ~
   Step         Total Energy             Delta E       MAX Force       RMS Force        MAX Disp        RMS Disp  ~
  --------------------------------------------------------------------------------------------------------------- ~
      1    -578.559610621714   -578.559610621714      0.00063906      0.00011778      0.12820060      0.01853547  ~
      2    -578.559153492931      0.000457128784      0.00786794      0.00102472      0.07896352      0.01153809  ~
      3    -578.559613895415     -0.000460402484      0.00153594      0.00020425      0.01901883      0.00270370  ~
      4    -578.559631036105     -0.000017140690      0.00066429      0.00008759      0.01411311      0.00199854  ~
      5    -578.559631565592     -0.000000529486      0.00051205      0.00007196      0.00654508      0.00092437  ~
      6    -578.559633571854     -0.000002006262      0.00006294      0.00000788      0.00101711      0.00025713  ~
  --------------------------------------------------------------------------------------------------------------- ~

	Writing optimization data to binary file.
	Final energy is   -578.5596335718539
	Final (previous) structure:
	Cartesian Geometry (in Angstrom)
	    C     3.9245847018   0.8145367362   0.4445474638
	    C     2.4645728332   1.3129196593   0.5230733554
	    C     1.6774283775   0.1653272224  -0.1042616822
	    C     2.4941976201  -0.6339830338  -0.8363760322
	    C     3.9353467540  -0.1502626460  -0.7612528027
	    C     0.2049251505   0.0522872840   0.0568555928
	    C    -0.4270667207  -1.1937402834   0.2839390240
	    C    -1.8106082839  -1.2866513105   0.4445668526
	    C    -2.6147541002  -0.1297606790   0.3926469008
	    C    -2.0070278160   1.1195333386   0.1881229905
	    C    -0.6107846727   1.1968798846   0.0305382791
	    C     2.1290259273  -1.7947632948  -1.7236825250
	    H    -0.1566191587   2.1806623023  -0.1276606754
	    H    -2.5952960578   2.0387411644   0.1503768464
	    O    -3.9562028907  -0.3347983827   0.5613493010
	    H    -2.2978872353  -2.2491244064   0.6256107718
	    H     0.1813143181  -2.1002374771   0.3588828081
	    H     4.1576416179   0.2455525496   1.3625457437
	    H     4.6610860123   1.6310469887   0.3585847749
	    H     4.6573724521  -0.9793058409  -0.6433441964
	    H     4.2031753585   0.3724051514  -1.7027842830
	    H     1.0427947910  -1.8679710707  -1.8880990202
	    H     2.6224122728  -1.6847164778  -2.7073444537
	    H     2.4817473995  -2.7521233901  -1.2952409521
	    H     2.1400928283   1.5377263101   1.5544295119
	    H     2.3261359310   2.2405877233  -0.0685330792
	    C    -4.7878974766   0.8126619202   0.5213533754
	    H    -5.8147342904   0.4492722617   0.6725489615
	    H    -4.5339010395   1.5291390311   1.3249376097
	    H    -4.7248580292   1.3285733062  -0.4550865565
	Saving final (previous) structure.
	Cleaning optimization helper files.
			--------------------------
			 OPTKING Finished Execution 
			--------------------------

    Final optimized geometry and variables:
    Molecular point group: c1
    Full point group: C1

    Geometry (in Angstrom), charge = 0, multiplicity = 1:

    C            3.924584717271     0.814536739412     0.444547465587
    C            2.464572842857     1.312919664483     0.523073357491
    C            1.677428384058     0.165327223068    -0.104261682620
    C            2.494197629939    -0.633983036324    -0.836376035533
    C            3.935346769466    -0.150262646623    -0.761252805732
    C            0.204925151268     0.052287284200     0.056855592994
    C           -0.427066722425    -1.193740288043     0.283939025085
    C           -1.810608290993    -1.286651315593     0.444566854375
    C           -2.614754110493    -0.129760679542     0.392646902357
    C           -2.007027823936     1.119533343039     0.188122991259
    C           -0.610784675122     1.196879889323     0.030538279174
    C            2.129025935634    -1.794763301862    -1.723682531809
    H           -0.156619159268     2.180662310856    -0.127660675938
    H           -2.595296067982     2.038741172454     0.150376846964
    O           -3.956202906209    -0.334798384034     0.561349303206
    H           -2.297887244344    -2.249124415254     0.625610774275
    H            0.181314318800    -2.100237485310     0.358882809490
    H            4.157641634281     0.245552550529     1.362545749075
    H            4.661086030658     1.631046995115     0.358584776313
    H            4.657372470450    -0.979305844742    -0.643344198956
    H            4.203175374993     0.372405152874    -1.702784289717
    H            1.042794795052    -1.867971078014    -1.888099027606
    H            2.622412283104    -1.684716484381    -2.707344464378
    H            2.481747409226    -2.752123400945    -1.295240957153
    H            2.140092836756     1.537726316159     1.554429518024
    H            2.326135940184     2.240587732147    -0.068533079443
    C           -4.787897495384     0.812661923375     0.521353377407
    H           -5.814734313263     0.449272263430     0.672548964178
    H           -4.533901057347     1.529139037068     1.324937614906
    H           -4.724858047730     1.328573311425    -0.455086558307

	Removing binary optimization data file.
	Cleaning optimization helper files.


Properties will be evaluated at   0.000000,   0.000000,   0.000000 [a0]
OEProp: No title given, name of density matrix used for the following properties is 'SCF density'
  Mulliken Charges: (a.u.)
   Center  Symbol    Alpha    Beta     Spin     Total
       1     C     3.02102  3.02102  0.00000 -0.04204
       2     C     2.99137  2.99137  0.00000  0.01726
       3     C     3.03270  3.03270  0.00000 -0.06541
       4     C     3.11329  3.11329  0.00000 -0.22657
       5     C     2.99277  2.99277  0.00000  0.01446
       6     C     3.05104  3.05104  0.00000 -0.10207
       7     C     2.99427  2.99427  0.00000  0.01147
       8     C     3.00115  3.00115  0.00000 -0.00230
       9     C     2.92408  2.92408  0.00000  0.15184
      10     C     3.03340  3.03340  0.00000 -0.06681
      11     C     2.99640  2.99640  0.00000  0.00720
      12     C     2.98874  2.98874  0.00000  0.02252
      13     H     0.49758  0.49758  0.00000  0.00484
      14     H     0.49209  0.49209  0.00000  0.01583
      15     O     4.17022  4.17022  0.00000 -0.34044
      16     H     0.48996  0.48996  0.00000  0.02008
      17     H     0.49515  0.49515  0.00000  0.00969
      18     H     0.48241  0.48241  0.00000  0.03519
      19     H     0.48825  0.48825  0.00000  0.02351
      20     H     0.48563  0.48563  0.00000  0.02873
      21     H     0.48097  0.48097  0.00000  0.03806
      22     H     0.47553  0.47553  0.00000  0.04894
      23     H     0.47985  0.47985  0.00000  0.04030
      24     H     0.47708  0.47708  0.00000  0.04585
      25     H     0.48273  0.48273  0.00000  0.03455
      26     H     0.47967  0.47967  0.00000  0.04066
      27     C     2.94741  2.94741  0.00000  0.10517
      28     H     0.47178  0.47178  0.00000  0.05645
      29     H     0.48174  0.48174  0.00000  0.03652
      30     H     0.48174  0.48174  0.00000  0.03652

   Total alpha = 51.00000, Total beta = 51.00000, Total charge =  0.00000

    Molecular point group: c1
    Full point group: C1

    Geometry (in Angstrom), charge = 0, multiplicity = 1:

       Center              X                  Y                   Z               Mass       
    ------------   -----------------  -----------------  -----------------  -----------------
         C            3.924584717271     0.814536739412     0.444547465587    12.000000000000
         C            2.464572842857     1.312919664483     0.523073357491    12.000000000000
         C            1.677428384058     0.165327223068    -0.104261682620    12.000000000000
         C            2.494197629939    -0.633983036324    -0.836376035533    12.000000000000
         C            3.935346769466    -0.150262646623    -0.761252805732    12.000000000000
         C            0.204925151268     0.052287284200     0.056855592994    12.000000000000
         C           -0.427066722425    -1.193740288043     0.283939025085    12.000000000000
         C           -1.810608290993    -1.286651315593     0.444566854375    12.000000000000
         C           -2.614754110493    -0.129760679542     0.392646902357    12.000000000000
         C           -2.007027823936     1.119533343039     0.188122991259    12.000000000000
         C           -0.610784675122     1.196879889323     0.030538279174    12.000000000000
         C            2.129025935634    -1.794763301862    -1.723682531809    12.000000000000
         H           -0.156619159268     2.180662310856    -0.127660675938     1.007825032230
         H           -2.595296067982     2.038741172454     0.150376846964     1.007825032230
         O           -3.956202906209    -0.334798384034     0.561349303206    15.994914619570
         H           -2.297887244344    -2.249124415254     0.625610774275     1.007825032230
         H            0.181314318800    -2.100237485310     0.358882809490     1.007825032230
         H            4.157641634281     0.245552550529     1.362545749075     1.007825032230
         H            4.661086030658     1.631046995115     0.358584776313     1.007825032230
         H            4.657372470450    -0.979305844742    -0.643344198956     1.007825032230
         H            4.203175374993     0.372405152874    -1.702784289717     1.007825032230
         H            1.042794795052    -1.867971078014    -1.888099027606     1.007825032230
         H            2.622412283104    -1.684716484381    -2.707344464378     1.007825032230
         H            2.481747409226    -2.752123400945    -1.295240957153     1.007825032230
         H            2.140092836756     1.537726316159     1.554429518024     1.007825032230
         H            2.326135940184     2.240587732147    -0.068533079443     1.007825032230
         C           -4.787897495384     0.812661923375     0.521353377407    12.000000000000
         H           -5.814734313263     0.449272263430     0.672548964178     1.007825032230
         H           -4.533901057347     1.529139037068     1.324937614906     1.007825032230
         H           -4.724858047730     1.328573311425    -0.455086558307     1.007825032230



  Variable Map:
  ----------------------------------------------------------------------------
  "CC D1 DIAGNOSTIC"                      =>       0.040685130554
  "CC D2 DIAGNOSTIC"                      =>       0.194815044168
  "CC NEW D1 DIAGNOSTIC"                  =>       0.040685130554
  "CC T1 DIAGNOSTIC"                      =>       0.009055354457
  "CCSD CORRELATION ENERGY"               =>      -2.074599368677
  "CCSD DOUBLES ENERGY"                   =>      -2.074599368677
  "CCSD ITERATIONS"                       =>      14.000000000000
  "CCSD OPPOSITE-SPIN CORRELATION ENERGY" =>      -1.615273522893
  "CCSD SAME-SPIN CORRELATION ENERGY"     =>      -0.459325845784
  "CCSD SINGLES ENERGY"                   =>       0.000000000000
  "CCSD TOTAL ENERGY"                     =>    -578.559633571854
  "CURRENT CORRELATION ENERGY"            =>      -2.074599368677
  "CURRENT DIPOLE X"                      =>      -0.287552629682
  "CURRENT DIPOLE Y"                      =>       1.189667731372
  "CURRENT DIPOLE Z"                      =>      -0.278715437763
  "CURRENT ENERGY"                        =>    -578.559633571854
  "CURRENT REFERENCE ENERGY"              =>    -576.484201354614
  "HF TOTAL ENERGY"                       =>    -576.484201354614
  "LCCSD (+LMP2) TOTAL ENERGY"            =>    -578.559633571854
  "MP2 CORRELATION ENERGY"                =>      -1.974598565343
  "MP2 DOUBLES ENERGY"                    =>      -1.974598565343
  "MP2 OPPOSITE-SPIN CORRELATION ENERGY"  =>      -1.463697833988
  "MP2 SAME-SPIN CORRELATION ENERGY"      =>      -0.510900731356
  "MP2 SINGLES ENERGY"                    =>      -0.000000000000
  "MP2 TOTAL ENERGY"                      =>    -578.459632768520
  "NUCLEAR REPULSION ENERGY"              =>     841.045992719488
  "ONE-ELECTRON ENERGY"                   =>   -2451.096736065494
  "OPTIMIZATION ITERATIONS"               =>       6.000000000000
  "PCM POLARIZATION ENERGY"               =>       0.000000000000
  "PE ENERGY"                             =>       0.000000000000
  "SCF DIPOLE X"                          =>      -0.287552629682
  "SCF DIPOLE Y"                          =>       1.189667731372
  "SCF DIPOLE Z"                          =>      -0.278715437763
  "SCF ITERATION ENERGY"                  =>    -576.484201354614
  "SCF ITERATIONS"                        =>      11.000000000000
  "SCF TOTAL ENERGY"                      =>    -576.484201354614
  "TWO-ELECTRON ENERGY"                   =>    1033.566541991392



    Psi4 stopped on: Sunday, 20 February 2022 07:02AM
    Psi4 wall time for execution: 2 days, 4:34:58.75

*** Psi4 exiting successfully. Buy a developer a beer!
