
    -----------------------------------------------------------------------
          Psi4: An Open-Source Ab Initio Electronic Structure Package
                               Psi4 1.4 release

                         Git: Rev {HEAD} 9485035 


    D. G. A. Smith, L. A. Burns, A. C. Simmonett, R. M. Parrish,
    M. C. Schieber, R. Galvelis, P. Kraus, H. Kruse, R. Di Remigio,
    A. Alenaizan, A. M. James, S. Lehtola, J. P. Misiewicz, M. Scheurer,
    R. A. Shaw, J. B. Schriber, Y. Xie, Z. L. Glick, D. A. Sirianni,
    J. S. O'Brien, J. M. Waldrop, A. Kumar, E. G. Hohenstein,
    B. P. Pritchard, B. R. Brooks, H. F. Schaefer III, A. Yu. Sokolov,
    K. Patkowski, A. E. DePrince III, U. Bozkaya, R. A. King,
    F. A. Evangelista, J. M. Turney, T. D. Crawford, C. D. Sherrill,
    J. Chem. Phys. 152(18) 184108 (2020). https://doi.org/10.1063/5.0006002

                            Additional Code Authors
    E. T. Seidl, C. L. Janssen, E. F. Valeev, M. L. Leininger,
    J. F. Gonthier, R. M. Richard, H. R. McAlexander, M. Saitow, X. Wang,
    P. Verma, and M. H. Lechner

             Previous Authors, Complete List of Code Contributors,
                       and Citations for Specific Modules
    https://github.com/psi4/psi4/blob/master/codemeta.json
    https://github.com/psi4/psi4/graphs/contributors
    http://psicode.org/psi4manual/master/introduction.html#citing-psifour

    -----------------------------------------------------------------------


    Psi4 started on: Wednesday, 19 January 2022 12:16AM

    Process ID: 3078812
    Host:       skylm005.palmetto.clemson.edu
    PSIDATADIR: /home/maxbuskirk/.conda/envs/psifour/share/psi4
    Memory:     500.0 MiB
    Threads:    1
    
  ==> Input File <==

--------------------------------------------------------------------------
molecule mol {
0 1
C 0.00000000 0.00000000 0.00000000
C -1.33160900 -0.52821100 0.39484800
C -1.43071100 -1.45269700 1.36587800
C -2.62792500 -1.93591800 1.73239500
C -3.74244100 -1.49412800 1.13010500
C -3.65384200 -0.56756700 0.16376000
C -2.45408900 -0.08753000 -0.19926200
H -2.39924400 0.68070000 -0.98910300
H -4.56915100 -0.19773500 -0.33032400
H -4.72851800 -1.88886800 1.43070300
H -2.69633900 -2.69630400 2.52975600
H -0.52149000 -1.82349700 1.86898600
C 0.80291000 0.82866100 0.99372200
C 2.05469100 -0.01352700 1.29254400
C 2.33965600 -0.73613400 -0.03532100
C 0.96570300 -0.98706800 -0.64018800
H 0.68568600 -2.02295000 -0.82494200
C 0.34304200 0.10457800 -1.46989700
H -0.39656500 -0.20546400 -2.20363900
H 0.96769800 0.93522300 -1.78708200
H 2.89906800 -1.68689100 0.13106700
H 2.94532000 -0.09317900 -0.71653600
H 1.81957400 -0.76486100 2.08426400
H 2.91658800 0.60476700 1.63908400
H 0.22390900 1.05449200 1.91967800
H 1.08828700 1.79961000 0.52491500
}

set scf_type df
set basis cc-pVDZ
set reference rhf

mol.update_geometry()
mol.symmetrize(1e-3)

e, wfn = optimize('CCSD', return_wfn=True)
oeprop(wfn, "MULLIKEN_CHARGES")
mol.print_out()
print_variables()
--------------------------------------------------------------------------

Scratch directory: /scratch1/maxbuskirk/
gradient() will perform analytic gradient computation.

*** tstart() called on skylm005.palmetto.clemson.edu
*** at Wed Jan 19 00:16:02 2022

   => Loading Basis Set <=

    Name: CC-PVDZ
    Role: ORBITAL
    Keyword: BASIS
    atoms 1-7, 13-16, 18  entry C          line   138 file /home/maxbuskirk/.conda/envs/psifour/share/psi4/basis/cc-pvdz.gbs 
    atoms 8-12, 17, 19-26 entry H          line    22 file /home/maxbuskirk/.conda/envs/psifour/share/psi4/basis/cc-pvdz.gbs 


         ---------------------------------------------------------
                                   SCF
               by Justin Turney, Rob Parrish, Andy Simmonett
                          and Daniel G. A. Smith
                              RHF Reference
                        1 Threads,    500 MiB Core
         ---------------------------------------------------------

  ==> Geometry <==

    Molecular point group: c1
    Full point group: C1

    Geometry (in Angstrom), charge = 0, multiplicity = 1:

       Center              X                  Y                   Z               Mass       
    ------------   -----------------  -----------------  -----------------  -----------------
         C            0.674180460717     0.561564973389    -0.392519782418    12.000000000000
         C           -0.657428539283     0.033353973389     0.002328217582    12.000000000000
         C           -0.756530539283    -0.891132026611     0.973358217582    12.000000000000
         C           -1.953744539283    -1.374353026611     1.339875217582    12.000000000000
         C           -3.068260539283    -0.932563026611     0.737585217582    12.000000000000
         C           -2.979661539283    -0.006002026611    -0.228759782418    12.000000000000
         C           -1.779908539283     0.474034973389    -0.591781782418    12.000000000000
         H           -1.725063539283     1.242264973389    -1.381622782418     1.007825032230
         H           -3.894970539283     0.363829973389    -0.722843782418     1.007825032230
         H           -4.054337539283    -1.327303026611     1.038183217582     1.007825032230
         H           -2.022158539283    -2.134739026611     2.137236217582     1.007825032230
         H            0.152690460717    -1.261932026611     1.476466217582     1.007825032230
         C            1.477090460717     1.390225973389     0.601202217582    12.000000000000
         C            2.728871460717     0.548037973389     0.900024217582    12.000000000000
         C            3.013836460717    -0.174569026611    -0.427840782418    12.000000000000
         C            1.639883460717    -0.425503026611    -1.032707782418    12.000000000000
         H            1.359866460717    -1.461385026611    -1.217461782418     1.007825032230
         C            1.017222460717     0.666142973389    -1.862416782418    12.000000000000
         H            0.277615460717     0.356100973389    -2.596158782418     1.007825032230
         H            1.641878460717     1.496787973389    -2.179601782418     1.007825032230
         H            3.573248460717    -1.125326026611    -0.261452782418     1.007825032230
         H            3.619500460717     0.468385973389    -1.109055782418     1.007825032230
         H            2.493754460717    -0.203296026611     1.691744217582     1.007825032230
         H            3.590768460717     1.166331973389     1.246564217582     1.007825032230
         H            0.898089460717     1.616056973389     1.527158217582     1.007825032230
         H            1.762467460717     2.361174973389     0.132395217582     1.007825032230

  Running in c1 symmetry.

  Rotational constants: A =      0.07571  B =      0.02141  C =      0.01936 [cm^-1]
  Rotational constants: A =   2269.60782  B =    641.84797  C =    580.28171 [MHz]
  Nuclear repulsion =  680.105901532754501

  Charge       = 0
  Multiplicity = 1
  Electrons    = 86
  Nalpha       = 43
  Nbeta        = 43

  ==> Algorithm <==

  SCF Algorithm Type is DF.
  DIIS enabled.
  MOM disabled.
  Fractional occupation disabled.
  Guess Type is SAD.
  Energy threshold   = 1.00e-10
  Density threshold  = 1.00e-10
  Integral threshold = 1.00e-12

  ==> Primary Basis <==

  Basis Set: CC-PVDZ
    Blend: CC-PVDZ
    Number of shells: 114
    Number of basis functions: 238
    Number of Cartesian functions: 250
    Spherical Harmonics?: true
    Max angular momentum: 2

   => Loading Basis Set <=

    Name: (CC-PVDZ AUX)
    Role: JKFIT
    Keyword: DF_BASIS_SCF
    atoms 1-7, 13-16, 18  entry C          line   121 file /home/maxbuskirk/.conda/envs/psifour/share/psi4/basis/cc-pvdz-jkfit.gbs 
    atoms 8-12, 17, 19-26 entry H          line    51 file /home/maxbuskirk/.conda/envs/psifour/share/psi4/basis/cc-pvdz-jkfit.gbs 

  ==> Integral Setup <==

  ==> DiskDFJK: Density-Fitted J/K Matrices <==

    J tasked:                  Yes
    K tasked:                  Yes
    wK tasked:                  No
    OpenMP threads:              1
    Integrals threads:           1
    Memory [MiB]:              375
    Algorithm:                Core
    Integral Cache:           NONE
    Schwarz Cutoff:          1E-12
    Fitting Condition:       1E-10

   => Auxiliary Basis Set <=

  Basis Set: (CC-PVDZ AUX)
    Blend: CC-PVDZ-JKFIT
    Number of shells: 414
    Number of basis functions: 1162
    Number of Cartesian functions: 1322
    Spherical Harmonics?: true
    Max angular momentum: 3

  Minimum eigenvalue in the overlap matrix is 2.2188113727E-04.
  Reciprocal condition number of the overlap matrix is 3.1789031591E-05.
    Using symmetric orthogonalization.

  ==> Pre-Iterations <==

  SCF Guess: Superposition of Atomic Densities via on-the-fly atomic UHF (no occupation information).

   -------------------------
    Irrep   Nso     Nmo    
   -------------------------
     A        238     238 
   -------------------------
    Total     238     238
   -------------------------

  ==> Iterations <==

                           Total Energy        Delta E     RMS |[F,P]|

   @DF-RHF iter SAD:  -462.99075645377417   -4.62991e+02   0.00000e+00 
   @DF-RHF iter   1:  -462.28571460042843    7.05042e-01   2.59677e-03 DIIS
   @DF-RHF iter   2:  -462.50715743008948   -2.21443e-01   1.21011e-03 DIIS
   @DF-RHF iter   3:  -462.55080897380162   -4.36515e-02   2.68881e-04 DIIS
   @DF-RHF iter   4:  -462.55404039063734   -3.23142e-03   8.51334e-05 DIIS
   @DF-RHF iter   5:  -462.55427584719143   -2.35457e-04   2.14207e-05 DIIS
   @DF-RHF iter   6:  -462.55429352274234   -1.76756e-05   5.16394e-06 DIIS
   @DF-RHF iter   7:  -462.55429469835974   -1.17562e-06   1.76417e-06 DIIS
   @DF-RHF iter   8:  -462.55429482955071   -1.31191e-07   3.96162e-07 DIIS
   @DF-RHF iter   9:  -462.55429484250703   -1.29563e-08   1.51001e-07 DIIS
   @DF-RHF iter  10:  -462.55429484450957   -2.00254e-09   6.94856e-08 DIIS
   @DF-RHF iter  11:  -462.55429484510847   -5.98902e-10   3.09629e-08 DIIS
   @DF-RHF iter  12:  -462.55429484524211   -1.33639e-10   1.35228e-08 DIIS
   @DF-RHF iter  13:  -462.55429484526422   -2.21121e-11   4.91965e-09 DIIS
   @DF-RHF iter  14:  -462.55429484526815   -3.92220e-12   1.46669e-09 DIIS
   @DF-RHF iter  15:  -462.55429484526815    0.00000e+00   4.28707e-10 DIIS
   @DF-RHF iter  16:  -462.55429484526911   -9.66338e-13   1.52644e-10 DIIS
   @DF-RHF iter  17:  -462.55429484526803    1.08002e-12   6.46951e-11 DIIS
  Energy and wave function converged.


  ==> Post-Iterations <==

    Orbital Energies [Eh]
    ---------------------

    Doubly Occupied:                                                      

       1A    -11.232531     2A    -11.230530     3A    -11.229445  
       4A    -11.227926     5A    -11.226830     6A    -11.224786  
       7A    -11.222957     8A    -11.222578     9A    -11.221950  
      10A    -11.219319    11A    -11.218457    12A    -11.217096  
      13A     -1.197139    14A     -1.164011    15A     -1.044019  
      16A     -1.026293    17A     -1.019662    18A     -0.953014  
      19A     -0.850294    20A     -0.830137    21A     -0.813004  
      22A     -0.770077    23A     -0.742910    24A     -0.703264  
      25A     -0.652220    26A     -0.643107    27A     -0.625682  
      28A     -0.603476    29A     -0.581979    30A     -0.575436  
      31A     -0.564815    32A     -0.563555    33A     -0.526502  
      34A     -0.511023    35A     -0.484221    36A     -0.475472  
      37A     -0.470286    38A     -0.465620    39A     -0.461432  
      40A     -0.409676    41A     -0.386850    42A     -0.341664  
      43A     -0.324829  

    Virtual:                                                              

      44A      0.147325    45A      0.153055    46A      0.176853  
      47A      0.191046    48A      0.199665    49A      0.210251  
      50A      0.229953    51A      0.233547    52A      0.241469  
      53A      0.253847    54A      0.258236    55A      0.265931  
      56A      0.268560    57A      0.285338    58A      0.302859  
      59A      0.308890    60A      0.339325    61A      0.354775  
      62A      0.371567    63A      0.385379    64A      0.401824  
      65A      0.421347    66A      0.437817    67A      0.465771  
      68A      0.484469    69A      0.493204    70A      0.501220  
      71A      0.513862    72A      0.531860    73A      0.569483  
      74A      0.603366    75A      0.629064    76A      0.640777  
      77A      0.657953    78A      0.664685    79A      0.678470  
      80A      0.691550    81A      0.705235    82A      0.712613  
      83A      0.721193    84A      0.727916    85A      0.732995  
      86A      0.743144    87A      0.749142    88A      0.755638  
      89A      0.765338    90A      0.779283    91A      0.796222  
      92A      0.813355    93A      0.823899    94A      0.832813  
      95A      0.840774    96A      0.857338    97A      0.866296  
      98A      0.868756    99A      0.872162   100A      0.883336  
     101A      0.890406   102A      0.893578   103A      0.897594  
     104A      0.902737   105A      0.908890   106A      0.910830  
     107A      0.919768   108A      0.925713   109A      0.933331  
     110A      0.938861   111A      0.957018   112A      0.964831  
     113A      0.980634   114A      0.987053   115A      1.014170  
     116A      1.041484   117A      1.066365   118A      1.148677  
     119A      1.154868   120A      1.162535   121A      1.175525  
     122A      1.179350   123A      1.184755   124A      1.219753  
     125A      1.263115   126A      1.271172   127A      1.271817  
     128A      1.310515   129A      1.315873   130A      1.328242  
     131A      1.332896   132A      1.350442   133A      1.355143  
     134A      1.381050   135A      1.412894   136A      1.430441  
     137A      1.436549   138A      1.462563   139A      1.472312  
     140A      1.480041   141A      1.503007   142A      1.541344  
     143A      1.567613   144A      1.604562   145A      1.625010  
     146A      1.665133   147A      1.691385   148A      1.706851  
     149A      1.737898   150A      1.755210   151A      1.776675  
     152A      1.788379   153A      1.799025   154A      1.806247  
     155A      1.822069   156A      1.838808   157A      1.846359  
     158A      1.865665   159A      1.875372   160A      1.882384  
     161A      1.896735   162A      1.906718   163A      1.912211  
     164A      1.920849   165A      1.930131   166A      1.938771  
     167A      1.952375   168A      1.956538   169A      1.962061  
     170A      1.969813   171A      1.982068   172A      1.986360  
     173A      1.993379   174A      2.001993   175A      2.005678  
     176A      2.016906   177A      2.030034   178A      2.049449  
     179A      2.062141   180A      2.064936   181A      2.081353  
     182A      2.102915   183A      2.118674   184A      2.138527  
     185A      2.148605   186A      2.170650   187A      2.184292  
     188A      2.195023   189A      2.216221   190A      2.222917  
     191A      2.235325   192A      2.245112   193A      2.257419  
     194A      2.276729   195A      2.280826   196A      2.299039  
     197A      2.305430   198A      2.312314   199A      2.321220  
     200A      2.324191   201A      2.331130   202A      2.367221  
     203A      2.391045   204A      2.411758   205A      2.449366  
     206A      2.461227   207A      2.467268   208A      2.476929  
     209A      2.491962   210A      2.520535   211A      2.585134  
     212A      2.588376   213A      2.616495   214A      2.631978  
     215A      2.655428   216A      2.703463   217A      2.717010  
     218A      2.756779   219A      2.762029   220A      2.776771  
     221A      2.808269   222A      2.818229   223A      2.824220  
     224A      2.848867   225A      2.873744   226A      2.910998  
     227A      2.919834   228A      2.986768   229A      3.041706  
     230A      3.062269   231A      3.080647   232A      3.088255  
     233A      3.139838   234A      3.188173   235A      3.272789  
     236A      3.297369   237A      3.388258   238A      4.120904  

    Final Occupation by Irrep:
              A 
    DOCC [    43 ]

  @DF-RHF Final Energy:  -462.55429484526803

   => Energetics <=

    Nuclear Repulsion Energy =            680.1059015327545012
    One-Electron Energy =               -1974.3682410063001953
    Two-Electron Energy =                 831.7080446282775483
    Total Energy =                       -462.5542948452680321

Computation Completed


Properties will be evaluated at   0.000000,   0.000000,   0.000000 [a0]

Properties computed using the SCF density matrix

  Nuclear Dipole Moment: [e a0]
     X:     7.1935      Y:     1.4596      Z:    -0.2048

  Electronic Dipole Moment: [e a0]
     X:    -7.1085      Y:    -1.4804      Z:     0.2209

  Dipole Moment: [e a0]
     X:     0.0850      Y:    -0.0209      Z:     0.0161     Total:     0.0890

  Dipole Moment: [D]
     X:     0.2160      Y:    -0.0530      Z:     0.0410     Total:     0.2262


*** tstop() called on skylm005.palmetto.clemson.edu at Wed Jan 19 00:16:26 2022
Module time:
	user time   =      23.23 seconds =       0.39 minutes
	system time =       0.61 seconds =       0.01 minutes
	total time  =         24 seconds =       0.40 minutes
Total time:
	user time   =      23.23 seconds =       0.39 minutes
	system time =       0.61 seconds =       0.01 minutes
	total time  =         24 seconds =       0.40 minutes
 MINTS: Wrapper to libmints.
   by Justin Turney

   Calculation information:
      Number of threads:                 1
      Number of atoms:                  26
      Number of AO shells:             114
      Number of SO shells:             114
      Number of primitives:            334
      Number of atomic orbitals:       250
      Number of basis functions:       238

      Number of irreps:                  1
      Integral cutoff                 1.00e-12
      Number of functions per irrep: [ 238 ]

 OEINTS: Overlap, kinetic, potential, dipole, and quadrupole integrals
         stored in file 35.

      Computing two-electron integrals...done
      Computed 291180230 non-zero two-electron integrals.
        Stored in file 33.


*** tstart() called on skylm005.palmetto.clemson.edu
*** at Wed Jan 19 00:22:17 2022


	Wfn Parameters:
	--------------------
	Wavefunction         = CCSD
	Number of irreps     = 1
	Number of MOs        = 238
	Number of active MOs = 238
	AO-Basis             = NONE
	Semicanonical        = false
	Reference            = RHF
	Print Level          = 1

	IRREP	# MOs	# FZDC	# DOCC	# SOCC	# VIRT	# FZVR
	-----	-----	------	------	------	------	------
	 A	   238	    0	    43	    0	    195	    0
	Transforming integrals...
	IWL integrals will be deleted.
	(OO|OO)...
	Presorting SO-basis two-electron integrals.
	Sorting File: SO Ints (nn|nn) nbuckets = 13
	Constructing frozen core operators
	Starting first half-transformation.
	Sorting half-transformed integrals.
	First half integral transformation complete.
	Starting second half-transformation.
	Two-electron integral transformation complete.
	(OO|OV)...
	Starting second half-transformation.
	Two-electron integral transformation complete.
	(OO|VV)...
	Starting second half-transformation.
	Two-electron integral transformation complete.
	(OV|OO)...
	Starting first half-transformation.
	Sorting half-transformed integrals.
	First half integral transformation complete.
	Starting second half-transformation.
	Two-electron integral transformation complete.
	(OV|OV)...
	Starting second half-transformation.
	Two-electron integral transformation complete.
	(OV|VV)...
	Starting second half-transformation.
	Two-electron integral transformation complete.
	(VV|OO)...
	Starting first half-transformation.
	Sorting half-transformed integrals.
	First half integral transformation complete.
	Starting second half-transformation.
	Two-electron integral transformation complete.
	(VV|OV)...
	Starting second half-transformation.
	Two-electron integral transformation complete.
	(VV|VV)...
	Starting second half-transformation.
	Two-electron integral transformation complete.
	Frozen core energy     =      0.00000000000000

	Size of irrep 0 of <ab|cd> integrals:   1445.901 (MW) /  11567.205 (MB)
	Total:                                  1445.901 (MW) /  11567.205 (MB)

	Size of irrep 0 of <ia|bc> integrals:    318.840 (MW) /   2550.717 (MB)
	Total:                                   318.840 (MW) /   2550.717 (MB)

	Size of irrep 0 of tijab amplitudes:      70.308 (MW) /    562.466 (MB)
	Total:                                    70.308 (MW) /    562.466 (MB)

