
    -----------------------------------------------------------------------
          Psi4: An Open-Source Ab Initio Electronic Structure Package
                               Psi4 1.4 release

                         Git: Rev {HEAD} 9485035 


    D. G. A. Smith, L. A. Burns, A. C. Simmonett, R. M. Parrish,
    M. C. Schieber, R. Galvelis, P. Kraus, H. Kruse, R. Di Remigio,
    A. Alenaizan, A. M. James, S. Lehtola, J. P. Misiewicz, M. Scheurer,
    R. A. Shaw, J. B. Schriber, Y. Xie, Z. L. Glick, D. A. Sirianni,
    J. S. O'Brien, J. M. Waldrop, A. Kumar, E. G. Hohenstein,
    B. P. Pritchard, B. R. Brooks, H. F. Schaefer III, A. Yu. Sokolov,
    K. Patkowski, A. E. DePrince III, U. Bozkaya, R. A. King,
    F. A. Evangelista, J. M. Turney, T. D. Crawford, C. D. Sherrill,
    J. Chem. Phys. 152(18) 184108 (2020). https://doi.org/10.1063/5.0006002

                            Additional Code Authors
    E. T. Seidl, C. L. Janssen, E. F. Valeev, M. L. Leininger,
    J. F. Gonthier, R. M. Richard, H. R. McAlexander, M. Saitow, X. Wang,
    P. Verma, and M. H. Lechner

             Previous Authors, Complete List of Code Contributors,
                       and Citations for Specific Modules
    https://github.com/psi4/psi4/blob/master/codemeta.json
    https://github.com/psi4/psi4/graphs/contributors
    http://psicode.org/psi4manual/master/introduction.html#citing-psifour

    -----------------------------------------------------------------------


    Psi4 started on: Thursday, 17 February 2022 11:52PM

    Process ID: 3276187
    Host:       skylm005.palmetto.clemson.edu
    PSIDATADIR: /home/maxbuskirk/.conda/envs/psifour/share/psi4
    Memory:     500.0 MiB
    Threads:    1
    
  ==> Input File <==

--------------------------------------------------------------------------
memory 62 GB

molecule mol {
1 1
units bohr
         C           -2.609054306218     1.219378788746    -1.387348241562
         C           -0.444326105330     0.216665540138    -0.211078766140
         C           -0.762598410359    -1.499859627017     1.803552587032
         C           -3.185731860071    -2.200507713375     2.618638708095
         C           -5.333621030432    -1.193217548091     1.424413055029
         C           -5.038785960338     0.517670566032    -0.581897834012
         C            2.152855938189     0.997540059426    -0.994271979384
         C            3.717738142680     2.664098978098     0.807648021655
         C            6.105322064521     1.095446769986     1.377190688880
         C            6.633307764521    -0.368718701197    -1.087554530115
         C            4.011507407240    -0.870163197766    -2.191432377123
         C            2.823954377123     1.207717288825    -3.767278772594
         H            3.399011265182    -2.810373356665    -2.558957652358
         H            7.674236944564    -2.137863292316    -0.740861595686
         H            7.783640748871     0.779586607020    -2.397922750851
         H            5.661109813388    -0.274153026427     2.888408450861
         H            7.719127388674     2.247087444815     2.021944455899
         H            2.637818243491     3.118819996215     2.527928074621
         H            4.217092602154     4.470423930735    -0.113548111079
         H           -2.379523672345     2.564686155816    -2.942222456493
         H           -6.703192480953     1.310711142115    -1.518975225104
         O           -7.719449396702    -1.887735362898     2.215741539243
         H           -3.401391184960    -3.542517508356     4.177398199940
         H            0.911872791601    -2.303769907774     2.718038302294
         H            1.386118460046     0.641954073851    -5.139887012999
         H            4.035865976997     2.780073360143    -4.352734823522
         H            2.422937485765     2.894286517440    -4.886830008086
         H           -8.946331406942    -1.045427736998     1.221838193833
}

set scf_type df
set opt_type ts
set basis cc-pVDZ
set reference rhf
set geom_maxiter 1000
set opt_coordinates cartesian
set full_hess_every 0
set dynamic_level 1

mol.update_geometry()
mol.symmetrize(1e-3)

e, wfn = optimize('CCSD', return_wfn=True)
oeprop(wfn, "MULLIKEN_CHARGES")
mol.print_out()
print_variables()
--------------------------------------------------------------------------

  Memory set to  57.742 GiB by Python driver.

Scratch directory: /scratch1/maxbuskirk/
gradient() will perform analytic gradient computation.

*** tstart() called on skylm005.palmetto.clemson.edu
*** at Thu Feb 17 23:52:35 2022

   => Loading Basis Set <=

    Name: CC-PVDZ
    Role: ORBITAL
    Keyword: BASIS
    atoms 1-12         entry C          line   138 file /home/maxbuskirk/.conda/envs/psifour/share/psi4/basis/cc-pvdz.gbs 
    atoms 13-21, 23-28 entry H          line    22 file /home/maxbuskirk/.conda/envs/psifour/share/psi4/basis/cc-pvdz.gbs 
    atoms 22           entry O          line   198 file /home/maxbuskirk/.conda/envs/psifour/share/psi4/basis/cc-pvdz.gbs 


         ---------------------------------------------------------
                                   SCF
               by Justin Turney, Rob Parrish, Andy Simmonett
                          and Daniel G. A. Smith
                              RHF Reference
                        1 Threads,  59127 MiB Core
         ---------------------------------------------------------

  ==> Geometry <==

    Molecular point group: c1
    Full point group: C1

    Geometry (in Bohr), charge = 1, multiplicity = 1:

       Center              X                  Y                   Z               Mass       
    ------------   -----------------  -----------------  -----------------  -----------------
         C           -2.609054306218     1.219378788746    -1.387348241562    12.000000000000
         C           -0.444326105330     0.216665540138    -0.211078766140    12.000000000000
         C           -0.762598410359    -1.499859627017     1.803552587032    12.000000000000
         C           -3.185731860071    -2.200507713375     2.618638708095    12.000000000000
         C           -5.333621030432    -1.193217548091     1.424413055029    12.000000000000
         C           -5.038785960338     0.517670566032    -0.581897834012    12.000000000000
         C            2.152855938189     0.997540059426    -0.994271979384    12.000000000000
         C            3.717738142680     2.664098978098     0.807648021655    12.000000000000
         C            6.105322064521     1.095446769986     1.377190688880    12.000000000000
         C            6.633307764521    -0.368718701197    -1.087554530115    12.000000000000
         C            4.011507407240    -0.870163197766    -2.191432377123    12.000000000000
         C            2.823954377123     1.207717288825    -3.767278772594    12.000000000000
         H            3.399011265182    -2.810373356665    -2.558957652358     1.007825032230
         H            7.674236944564    -2.137863292316    -0.740861595686     1.007825032230
         H            7.783640748871     0.779586607020    -2.397922750851     1.007825032230
         H            5.661109813388    -0.274153026427     2.888408450861     1.007825032230
         H            7.719127388674     2.247087444815     2.021944455899     1.007825032230
         H            2.637818243491     3.118819996215     2.527928074621     1.007825032230
         H            4.217092602154     4.470423930735    -0.113548111079     1.007825032230
         H           -2.379523672345     2.564686155816    -2.942222456493     1.007825032230
         H           -6.703192480953     1.310711142115    -1.518975225104     1.007825032230
         O           -7.719449396702    -1.887735362898     2.215741539243    15.994914619570
         H           -3.401391184960    -3.542517508356     4.177398199940     1.007825032230
         H            0.911872791601    -2.303769907774     2.718038302294     1.007825032230
         H            1.386118460046     0.641954073851    -5.139887012999     1.007825032230
         H            4.035865976997     2.780073360143    -4.352734823522     1.007825032230
         H            2.422937485765     2.894286517440    -4.886830008086     1.007825032230
         H           -8.946331406942    -1.045427736998     1.221838193833     1.007825032230

  Running in c1 symmetry.

  Rotational constants: A =      0.07090  B =      0.01432  C =      0.01322 [cm^-1]
  Rotational constants: A =   2125.64030  B =    429.31349  C =    396.18533 [MHz]
  Nuclear repulsion =  775.693678530217312

  Charge       = 1
  Multiplicity = 1
  Electrons    = 94
  Nalpha       = 47
  Nbeta        = 47

  ==> Algorithm <==

  SCF Algorithm Type is DF.
  DIIS enabled.
  MOM disabled.
  Fractional occupation disabled.
  Guess Type is SAD.
  Energy threshold   = 1.00e-10
  Density threshold  = 1.00e-10
  Integral threshold = 1.00e-12

  ==> Primary Basis <==

  Basis Set: CC-PVDZ
    Blend: CC-PVDZ
    Number of shells: 123
    Number of basis functions: 257
    Number of Cartesian functions: 270
    Spherical Harmonics?: true
    Max angular momentum: 2

   => Loading Basis Set <=

    Name: (CC-PVDZ AUX)
    Role: JKFIT
    Keyword: DF_BASIS_SCF
    atoms 1-12         entry C          line   121 file /home/maxbuskirk/.conda/envs/psifour/share/psi4/basis/cc-pvdz-jkfit.gbs 
    atoms 13-21, 23-28 entry H          line    51 file /home/maxbuskirk/.conda/envs/psifour/share/psi4/basis/cc-pvdz-jkfit.gbs 
    atoms 22           entry O          line   221 file /home/maxbuskirk/.conda/envs/psifour/share/psi4/basis/cc-pvdz-jkfit.gbs 

  ==> Integral Setup <==

  DFHelper Memory: AOs need 0.569 GiB; user supplied 43.306 GiB. Using in-core AOs.

  ==> MemDFJK: Density-Fitted J/K Matrices <==

    J tasked:                   Yes
    K tasked:                   Yes
    wK tasked:                   No
    OpenMP threads:               1
    Memory [MiB]:             44345
    Algorithm:                 Core
    Schwarz Cutoff:           1E-12
    Mask sparsity (%):      11.5823
    Fitting Condition:        1E-10

   => Auxiliary Basis Set <=

  Basis Set: (CC-PVDZ AUX)
    Blend: CC-PVDZ-JKFIT
    Number of shells: 447
    Number of basis functions: 1255
    Number of Cartesian functions: 1428
    Spherical Harmonics?: true
    Max angular momentum: 3

  Minimum eigenvalue in the overlap matrix is 3.3934923526E-04.
  Reciprocal condition number of the overlap matrix is 4.7773124650E-05.
    Using symmetric orthogonalization.

  ==> Pre-Iterations <==

  SCF Guess: Superposition of Atomic Densities via on-the-fly atomic UHF (no occupation information).

   -------------------------
    Irrep   Nso     Nmo    
   -------------------------
     A        257     257 
   -------------------------
    Total     257     257
   -------------------------

  ==> Iterations <==

                           Total Energy        Delta E     RMS |[F,P]|

   @DF-RHF iter SAD:  -537.97489221293040   -5.37975e+02   0.00000e+00 
   @DF-RHF iter   1:  -537.36797566979817    6.06917e-01   2.46962e-03 DIIS
   @DF-RHF iter   2:  -537.60434789190845   -2.36372e-01   1.05573e-03 DIIS
   @DF-RHF iter   3:  -537.64102237462475   -3.66745e-02   2.86881e-04 DIIS
   @DF-RHF iter   4:  -537.64490229944352   -3.87992e-03   9.69274e-05 DIIS
   @DF-RHF iter   5:  -537.64528407370813   -3.81774e-04   2.55328e-05 DIIS
   @DF-RHF iter   6:  -537.64532090203045   -3.68283e-05   8.00954e-06 DIIS
   @DF-RHF iter   7:  -537.64532559875636   -4.69673e-06   3.31670e-06 DIIS
   @DF-RHF iter   8:  -537.64532648032764   -8.81571e-07   1.21136e-06 DIIS
   @DF-RHF iter   9:  -537.64532666901982   -1.88692e-07   5.54619e-07 DIIS
   @DF-RHF iter  10:  -537.64532670930373   -4.02839e-08   2.56553e-07 DIIS
   @DF-RHF iter  11:  -537.64532672178348   -1.24797e-08   1.03573e-07 DIIS
   @DF-RHF iter  12:  -537.64532672377140   -1.98793e-09   3.92314e-08 DIIS
   @DF-RHF iter  13:  -537.64532672397456   -2.03158e-10   1.48490e-08 DIIS
   @DF-RHF iter  14:  -537.64532672399946   -2.48974e-11   3.98563e-09 DIIS
   @DF-RHF iter  15:  -537.64532672400242   -2.95586e-12   1.47295e-09 DIIS
   @DF-RHF iter  16:  -537.64532672400162    7.95808e-13   6.17685e-10 DIIS
   @DF-RHF iter  17:  -537.64532672400117    4.54747e-13   2.65907e-10 DIIS
   @DF-RHF iter  18:  -537.64532672400162   -4.54747e-13   1.16053e-10 DIIS
   @DF-RHF iter  19:  -537.64532672400230   -6.82121e-13   5.59198e-11 DIIS
  Energy and wave function converged.


  ==> Post-Iterations <==

    Orbital Energies [Eh]
    ---------------------

    Doubly Occupied:                                                      

       1A    -20.691983     2A    -11.491930     3A    -11.463605  
       4A    -11.439728     5A    -11.429342     6A    -11.394862  
       7A    -11.389747     8A    -11.383390     9A    -11.380374  
      10A    -11.378225    11A    -11.376442    12A    -11.362869  
      13A    -11.359839    14A     -1.506034    15A     -1.406910  
      16A     -1.274305    17A     -1.248997    18A     -1.170028  
      19A     -1.148257    20A     -1.141316    21A     -1.105054  
      22A     -0.975962    23A     -0.968056    24A     -0.960620  
      25A     -0.917832    26A     -0.878550    27A     -0.856015  
      28A     -0.841206    29A     -0.795167    30A     -0.778341  
      31A     -0.760505    32A     -0.750568    33A     -0.736158  
      34A     -0.711313    35A     -0.699038    36A     -0.689568  
      37A     -0.678538    38A     -0.667439    39A     -0.655113  
      40A     -0.639581    41A     -0.628690    42A     -0.624938  
      43A     -0.612885    44A     -0.599585    45A     -0.578297  
      46A     -0.463400    47A     -0.432576  

    Virtual:                                                              

      48A     -0.071122    49A     -0.025993    50A     -0.000615  
      51A      0.012708    52A      0.026152    53A      0.049754  
      54A      0.074212    55A      0.074929    56A      0.089734  
      57A      0.092126    58A      0.108020    59A      0.115169  
      60A      0.120822    61A      0.132754    62A      0.144412  
      63A      0.147083    64A      0.161459    65A      0.178522  
      66A      0.189889    67A      0.216361    68A      0.218057  
      69A      0.232478    70A      0.256410    71A      0.261158  
      72A      0.302878    73A      0.310342    74A      0.332459  
      75A      0.343922    76A      0.355590    77A      0.371123  
      78A      0.374118    79A      0.414541    80A      0.453773  
      81A      0.466011    82A      0.480880    83A      0.496459  
      84A      0.519364    85A      0.520103    86A      0.525777  
      87A      0.536023    88A      0.541259    89A      0.563462  
      90A      0.576298    91A      0.577989    92A      0.590947  
      93A      0.598805    94A      0.603222    95A      0.608208  
      96A      0.617814    97A      0.634601    98A      0.637771  
      99A      0.659241   100A      0.667817   101A      0.678065  
     102A      0.689041   103A      0.692524   104A      0.695981  
     105A      0.705594   106A      0.711959   107A      0.714989  
     108A      0.717201   109A      0.739775   110A      0.746450  
     111A      0.753151   112A      0.754970   113A      0.759593  
     114A      0.767842   115A      0.772397   116A      0.783896  
     117A      0.790981   118A      0.801389   119A      0.803707  
     120A      0.826293   121A      0.830700   122A      0.845175  
     123A      0.870650   124A      0.886311   125A      0.903613  
     126A      0.968878   127A      0.988467   128A      1.007613  
     129A      1.018107   130A      1.032770   131A      1.041966  
     132A      1.049209   133A      1.087719   134A      1.104722  
     135A      1.112502   136A      1.131312   137A      1.145903  
     138A      1.169223   139A      1.175428   140A      1.182041  
     141A      1.189174   142A      1.203110   143A      1.235900  
     144A      1.240771   145A      1.265254   146A      1.266338  
     147A      1.285847   148A      1.307006   149A      1.315088  
     150A      1.331424   151A      1.356931   152A      1.376804  
     153A      1.396988   154A      1.438010   155A      1.450423  
     156A      1.481876   157A      1.490662   158A      1.507745  
     159A      1.511831   160A      1.530092   161A      1.551857  
     162A      1.579641   163A      1.589456   164A      1.610154  
     165A      1.630208   166A      1.635296   167A      1.657505  
     168A      1.663138   169A      1.674812   170A      1.690022  
     171A      1.698549   172A      1.708240   173A      1.739432  
     174A      1.742499   175A      1.756161   176A      1.763649  
     177A      1.773580   178A      1.781292   179A      1.788785  
     180A      1.793750   181A      1.803581   182A      1.809152  
     183A      1.819762   184A      1.829140   185A      1.841964  
     186A      1.843984   187A      1.854888   188A      1.865117  
     189A      1.877474   190A      1.883408   191A      1.893903  
     192A      1.901324   193A      1.927536   194A      1.936941  
     195A      1.941212   196A      1.951412   197A      1.956214  
     198A      1.976516   199A      1.987971   200A      2.001129  
     201A      2.016929   202A      2.034586   203A      2.057308  
     204A      2.083940   205A      2.088924   206A      2.104602  
     207A      2.112191   208A      2.125525   209A      2.130130  
     210A      2.152580   211A      2.168079   212A      2.189478  
     213A      2.200640   214A      2.228473   215A      2.238164  
     216A      2.241401   217A      2.267144   218A      2.283398  
     219A      2.290966   220A      2.298289   221A      2.315214  
     222A      2.335877   223A      2.367722   224A      2.379248  
     225A      2.412103   226A      2.424139   227A      2.439544  
     228A      2.451776   229A      2.514011   230A      2.517613  
     231A      2.554197   232A      2.567965   233A      2.600869  
     234A      2.612780   235A      2.621085   236A      2.629911  
     237A      2.642438   238A      2.649363   239A      2.702431  
     240A      2.713090   241A      2.755050   242A      2.789851  
     243A      2.816499   244A      2.838117   245A      2.861262  
     246A      2.905161   247A      2.928209   248A      2.976621  
     249A      3.051492   250A      3.111299   251A      3.116531  
     252A      3.149064   253A      3.232973   254A      3.441626  
     255A      3.549235   256A      3.805195   257A      4.089130  

    Final Occupation by Irrep:
              A 
    DOCC [    47 ]

  @DF-RHF Final Energy:  -537.64532672400230

   => Energetics <=

    Nuclear Repulsion Energy =            775.6936785302173121
    One-Electron Energy =               -2253.7916547794584403
    Two-Electron Energy =                 940.4526495252388258
    Total Energy =                       -537.6453267240023024

Computation Completed


Properties will be evaluated at   0.000000,   0.000000,   0.000000 [a0]

Properties computed using the SCF density matrix

  Nuclear Dipole Moment: [e a0]
     X:    13.0862      Y:     4.3079      Z:    -4.5070

  Electronic Dipole Moment: [e a0]
     X:   -10.7633      Y:    -2.8607      Z:     1.6858

  Dipole Moment: [e a0]
     X:     2.3229      Y:     1.4473      Z:    -2.8212     Total:     3.9306

  Dipole Moment: [D]
     X:     5.9041      Y:     3.6786      Z:    -7.1708     Total:     9.9905


*** tstop() called on skylm005.palmetto.clemson.edu at Thu Feb 17 23:52:50 2022
Module time:
	user time   =      11.98 seconds =       0.20 minutes
	system time =       0.78 seconds =       0.01 minutes
	total time  =         15 seconds =       0.25 minutes
Total time:
	user time   =      11.98 seconds =       0.20 minutes
	system time =       0.78 seconds =       0.01 minutes
	total time  =         15 seconds =       0.25 minutes
 MINTS: Wrapper to libmints.
   by Justin Turney

   Calculation information:
      Number of threads:                 1
      Number of atoms:                  28
      Number of AO shells:             123
      Number of SO shells:             123
      Number of primitives:            361
      Number of atomic orbitals:       270
      Number of basis functions:       257

      Number of irreps:                  1
      Integral cutoff                 1.00e-12
      Number of functions per irrep: [ 257 ]

 OEINTS: Overlap, kinetic, potential, dipole, and quadrupole integrals
         stored in file 35.

      Computing two-electron integrals...done
      Computed 343701790 non-zero two-electron integrals.
        Stored in file 33.


*** tstart() called on skylm005.palmetto.clemson.edu
*** at Thu Feb 17 23:58:58 2022


	Wfn Parameters:
	--------------------
	Wavefunction         = CCSD
	Number of irreps     = 1
	Number of MOs        = 257
	Number of active MOs = 257
	AO-Basis             = NONE
	Semicanonical        = false
	Reference            = RHF
	Print Level          = 1

	IRREP	# MOs	# FZDC	# DOCC	# SOCC	# VIRT	# FZVR
	-----	-----	------	------	------	------	------
	 A	   257	    0	    47	    0	    210	    0
	Transforming integrals...
	IWL integrals will be deleted.
	(OO|OO)...
	Presorting SO-basis two-electron integrals.
	Sorting File: SO Ints (nn|nn) nbuckets = 1
	Constructing frozen core operators
	Starting first half-transformation.
	Sorting half-transformed integrals.
	First half integral transformation complete.
	Starting second half-transformation.
	Two-electron integral transformation complete.
	(OO|OV)...
	Starting second half-transformation.
	Two-electron integral transformation complete.
	(OO|VV)...
	Starting second half-transformation.
	Two-electron integral transformation complete.
	(OV|OO)...
	Starting first half-transformation.
	Sorting half-transformed integrals.
	First half integral transformation complete.
	Starting second half-transformation.
	Two-electron integral transformation complete.
	(OV|OV)...
	Starting second half-transformation.
	Two-electron integral transformation complete.
	(OV|VV)...
	Starting second half-transformation.
	Two-electron integral transformation complete.
	(VV|OO)...
	Starting first half-transformation.
	Sorting half-transformed integrals.
	First half integral transformation complete.
	Starting second half-transformation.
	Two-electron integral transformation complete.
	(VV|OV)...
	Starting second half-transformation.
	Two-electron integral transformation complete.
	(VV|VV)...
	Starting second half-transformation.
	Two-electron integral transformation complete.
	Frozen core energy     =      0.00000000000000

	Size of irrep 0 of <ab|cd> integrals:   1944.810 (MW) /  15558.480 (MB)
	Total:                                  1944.810 (MW) /  15558.480 (MB)

	Size of irrep 0 of <ia|bc> integrals:    435.267 (MW) /   3482.136 (MB)
	Total:                                   435.267 (MW) /   3482.136 (MB)

	Size of irrep 0 of tijab amplitudes:      97.417 (MW) /    779.335 (MB)
	Total:                                    97.417 (MW) /    779.335 (MB)

	Nuclear Rep. energy          =    775.69367853021731
	SCF energy                   =   -537.64532672400230
	One-electron energy          =  -2253.79165481048585
	Two-electron energy          =    940.45193048728981
	Reference energy             =   -537.64604579297884

*** tstop() called on skylm005.palmetto.clemson.edu at Fri Feb 18 00:11:03 2022
Module time:
	user time   =     189.24 seconds =       3.15 minutes
	system time =     106.95 seconds =       1.78 minutes
	total time  =        725 seconds =      12.08 minutes
Total time:
	user time   =     360.78 seconds =       6.01 minutes
	system time =     121.22 seconds =       2.02 minutes
	total time  =       1108 seconds =      18.47 minutes
            **************************
            *                        *
            *        CCENERGY        *
            *                        *
            **************************

    Nuclear Rep. energy (wfn)     =  775.693678530217312
    SCF energy          (wfn)     = -537.645326724002302
    Reference energy    (file100) = -537.646045792978839

    Input parameters:
    -----------------
    Wave function   =     CCSD
    Reference wfn   =     RHF
    Brueckner       =     No
    Memory (Mbytes) =     62000.0
    Maxiter         =     50
    R_Convergence   =     1.0e-07
    E_Convergence   =     1.0e-08
    Restart         =     Yes
    DIIS            =     Yes
    AO Basis        =     NONE
    ABCD            =     NEW
    Cache Level     =     2
    Cache Type      =     LOW
    Print Level     =     1
    Num. of threads =     1
    # Amps to Print =     10
    Print MP2 Amps? =     No
    Analyze T2 Amps =     No
    Print Pair Ener =     No
    Local CC        =     No
    SCS-MP2         =     False
    SCSN-MP2        =     False
    SCS-CCSD        =     False

MP2 correlation energy -1.8418262969834969
                Solving CC Amplitude Equations
                ------------------------------
  Iter             Energy              RMS        T1Diag      D1Diag    New D1Diag    D2Diag
  ----     ---------------------    ---------   ----------  ----------  ----------   --------
     0        -1.841826296983497    0.000e+00    0.000000    0.000000    0.000000    0.177689
     1        -1.865506607476333    1.298e-01    0.007489    0.030217    0.030217    0.166244
     2        -1.914069800836417    4.513e-02    0.007533    0.027515    0.027515    0.179247
     3        -1.925515265949337    1.973e-02    0.008736    0.036727    0.036727    0.182947
     4        -1.925617202253360    6.128e-03    0.008898    0.037403    0.037403    0.184472
     5        -1.925693964413534    3.006e-03    0.009012    0.039130    0.039130    0.185565
     6        -1.925781306426552    8.499e-04    0.009048    0.039733    0.039733    0.185865
     7        -1.925758609297064    3.392e-04    0.009056    0.039932    0.039932    0.185913
     8        -1.925748373173560    1.372e-04    0.009060    0.040024    0.040024    0.185922
     9        -1.925750489632023    6.765e-05    0.009062    0.040068    0.040068    0.185923
    10        -1.925750475069672    3.326e-05    0.009063    0.040091    0.040091    0.185918
    11        -1.925748996133421    1.513e-05    0.009064    0.040103    0.040103    0.185916
    12        -1.925748767568754    7.033e-06    0.009064    0.040107    0.040107    0.185915
    13        -1.925748446278668    2.740e-06    0.009064    0.040107    0.040107    0.185914
    14        -1.925748336004500    1.357e-06    0.009064    0.040107    0.040107    0.185914
    15        -1.925748303987368    5.557e-07    0.009064    0.040107    0.040107    0.185914
    16        -1.925748292382605    2.793e-07    0.009064    0.040106    0.040106    0.185914
    17        -1.925748291215809    1.229e-07    0.009064    0.040106    0.040106    0.185914
    18        -1.925748291310084    5.880e-08    0.009064    0.040106    0.040106    0.185914

    Iterations converged.


    Largest TIA Amplitudes:
             35   3        -0.0234940403
             43   3         0.0161317248
             44   3         0.0127963687
             45  47         0.0125491892
             45   2        -0.0116970007
             45  87        -0.0109528796
             35  21        -0.0105564804
             45  50         0.0099901797
             46  43        -0.0094949537
             45  46        -0.0088846689

    Largest TIjAb Amplitudes:
     45  45   2   2        -0.0757464985
     46  46   3   3        -0.0638574558
     45  46   3   2         0.0381867982
     46  45   2   3         0.0381867982
     46  46   2   2        -0.0328706143
     45  45   3   3        -0.0271353025
     45  45   1   2         0.0204013005
     45  45   2   1         0.0204013005
     46  46   3   4         0.0195405634
     46  46   4   3         0.0195405634

    SCF energy       (wfn)                    = -537.645326724002302
    Reference energy (file100)                = -537.646045792978839

    Opposite-spin MP2 correlation energy      =   -1.357943723949075
    Same-spin MP2 correlation energy          =   -0.483882573034421
    Singles MP2 correlation energy            =   -0.000000000000000
    MP2 correlation energy                    =   -1.841826296983497
      * MP2 total energy                      = -539.487872089962366

    Opposite-spin CCSD correlation energy     =   -1.490712949564378
    Same-spin CCSD correlation energy         =   -0.435035341745706
    Singles CCSD correlation energy           =    0.000000000000000
    CCSD correlation energy                   =   -1.925748291310084
      * CCSD total energy                     = -539.571794084288967


			**************************
			*                        *
			*         CCHBAR         *
			*                        *
			**************************


			**************************
			*        CCLAMBDA        *
			**************************


	Nuclear Rep. energy (wfn)     =  775.693678530217312
	Reference           (wfn)     =                    0
	SCF energy          (wfn)     = -537.645326724002302
	Reference energy    (CC_INFO) = -537.646045792978839
	CCSD energy         (CC_INFO) =   -1.925748291310084
	Total CCSD energy   (CC_INFO) = -539.571794084288967

	Input parameters:
	-----------------
	Maxiter           =     50
	Convergence       = 1.0e-07
	Restart           =     No
	Cache Level       =     2
	Model III         =     No
	DIIS              =     Yes
	AO Basis          =     No
	ABCD              =     NEW
	Local CC          =     No
	Parameters for left-handed eigenvectors:
	    Irr   Root  Ground-State?    EOM energy        R0
	  1   0     0        Yes       0.0000000000   1.0000000000
	Labels for eigenvector 1:
	LIA 0 -1, Lia 0 -1, LIJAB 0 -1, Lijab 0 -1, LIjAb 0 -1, 2LIjAb - LIjbA 0 -1
	Symmetry of left-hand state: A
	Symmetry of left-hand eigenvector: A

	          Solving Lambda Equations
	          ------------------------
	Iter     PseudoEnergy or Norm         RMS  
	----     ---------------------     --------
	   0        -1.925881101820107    0.000e+00
	   1        -1.870361333881346    3.520e-02
	   2        -1.865316724737607    7.473e-03
	   3        -1.863985247245328    3.760e-03
	   4        -1.863631619583831    1.408e-03
	   5        -1.863723901985087    7.730e-04
	   6        -1.863739159997651    2.829e-04
	   7        -1.863728756309376    1.288e-04
	   8        -1.863731413352661    5.292e-05
	   9        -1.863732814897615    2.254e-05
	  10        -1.863732413308526    9.209e-06
	  11        -1.863732625727806    4.483e-06
	  12        -1.863732532710353    1.954e-06
	  13        -1.863732443878719    8.846e-07
	  14        -1.863732446096698    4.703e-07
	  15        -1.863732440445183    2.161e-07
	  16        -1.863732438496266    1.105e-07
	  17        -1.863732439188973    4.880e-08

	Largest LIA Amplitudes:
	         35   3        -0.0163363380
	         43   3         0.0111220019
	         45  47         0.0099486603
	         45  87        -0.0088184223
	         45   2        -0.0086960392
	         44   3         0.0085139954
	         45  50         0.0079670195
	         35  21        -0.0071477259
	         46  43        -0.0070986287
	         45  46        -0.0070250717

	Largest LIjAb Amplitudes:
	 45  45   2   2        -0.0712675046
	 46  46   3   3        -0.0596306797
	 45  46   3   2         0.0362170394
	 46  45   2   3         0.0362170394
	 46  46   2   2        -0.0292318218
	 45  45   3   3        -0.0243024429
	 45  45   1   2         0.0191863256
	 45  45   2   1         0.0191863256
	 46  46   3   4         0.0182568639
	 46  46   4   3         0.0182568639

	Iterations converged.

	Overlap <L|e^T> =        0.29408674210

			**************************
			*                        *
			*        CCDENSITY       *
			*                        *
			**************************


	Input parameters:
	-----------------
	Wave function    =   CCSD
	Reference wfn    =   RHF
	Dertype          = 1
	Tolerance        = 1.0e-14
	Cache Level      = 2
	AO Basis         = No
	OPDM Only        = No
	Relax OPDM       = Yes
	Compute Xi       = No
	Use Zeta         = No
	Xi connected     = Yes
	Compute NO       = No

	Nuclear Rep. energy (wfn)     =  775.693678530217312
	SCF energy          (wfn)     = -537.645326724002302
	Reference energy    (file100) = -537.646045792978839
	CCSD energy         (CC_INFO) =   -1.925748291310084
	Total CCSD energy   (CC_INFO) = -539.571794084288967
	Number of States = 1

	Ground?  State     EOM Energy       R0
	  Yes     0  A    0.0000000000   1.00000000

	Virial Theorem Data:
	--------------------
	Kinetic energy (ref)   =  537.065813532446441
	Kinetic energy (corr)  =    1.791406796169322
	Kinetic energy (total) =  538.857220328615767
	-V/T (ref)             =    2.001080374594533
	-V/T (corr)            =    2.074992176778626
	-V/T (total)           =    2.001326091084457
    Molecular point group: c1
    Full point group: C1

    Geometry (in Bohr), charge = 1, multiplicity = 1:

       Center              X                  Y                   Z       
    ------------   -----------------  -----------------  -----------------
         C           -2.609054306218     1.219378788746    -1.387348241562
         C           -0.444326105330     0.216665540138    -0.211078766140
         C           -0.762598410359    -1.499859627017     1.803552587032
         C           -3.185731860071    -2.200507713375     2.618638708095
         C           -5.333621030432    -1.193217548091     1.424413055029
         C           -5.038785960338     0.517670566032    -0.581897834012
         C            2.152855938189     0.997540059426    -0.994271979384
         C            3.717738142680     2.664098978098     0.807648021655
         C            6.105322064521     1.095446769986     1.377190688880
         C            6.633307764521    -0.368718701197    -1.087554530115
         C            4.011507407240    -0.870163197766    -2.191432377123
         C            2.823954377123     1.207717288825    -3.767278772594
         H            3.399011265182    -2.810373356665    -2.558957652358
         H            7.674236944564    -2.137863292316    -0.740861595686
         H            7.783640748871     0.779586607020    -2.397922750851
         H            5.661109813388    -0.274153026427     2.888408450861
         H            7.719127388674     2.247087444815     2.021944455899
         H            2.637818243491     3.118819996215     2.527928074621
         H            4.217092602154     4.470423930735    -0.113548111079
         H           -2.379523672345     2.564686155816    -2.942222456493
         H           -6.703192480953     1.310711142115    -1.518975225104
         O           -7.719449396702    -1.887735362898     2.215741539243
         H           -3.401391184960    -3.542517508356     4.177398199940
         H            0.911872791601    -2.303769907774     2.718038302294
         H            1.386118460046     0.641954073851    -5.139887012999
         H            4.035865976997     2.780073360143    -4.352734823522
         H            2.422937485765     2.894286517440    -4.886830008086
         H           -8.946331406942    -1.045427736998     1.221838193833

	Presorting MO-basis TPDM.
	Sorting File: MO TPDM (AA|AA) nbuckets = 1
	Starting first half-transformation.
	Sorting half-transformed TPDM.
	First half integral transformation complete.


  -Total gradient:
     Atom            X                  Y                   Z
    ------   -----------------  -----------------  -----------------
       1       -0.002151078655     0.002976387549    -0.003118216765
       2        0.010331905397     0.000399428457     0.006953149530
       3        0.002503481382    -0.000881358363     0.002203339750
       4       -0.004201339022     0.003472487299    -0.003961283124
       5        0.023973042084    -0.002112515357     0.002384960010
       6       -0.006353512470    -0.003421017271     0.003947458933
       7       -0.005995861211     0.009840870704    -0.007683581150
       8       -0.005116356558    -0.004258981519     0.000378471504
       9        0.000575970419     0.000377714303    -0.001937162232
      10       -0.009725119795    -0.002806421827     0.000485495501
      11       -0.009393146081     0.002764986983    -0.027209000776
      12        0.049883782280     0.042077943337    -0.020859193927
      13        0.001204884713    -0.002530996269     0.011187952386
      14        0.001491091288     0.000355170813     0.002243069765
      15       -0.001395901466     0.001980053990     0.000346781714
      16       -0.000357794962    -0.000125024231    -0.000774897201
      17        0.000591988375     0.000942337047     0.000999282663
      18        0.001120805190    -0.000220546495     0.002683218638
      19       -0.000411487813    -0.002856168424    -0.000899125661
      20        0.003198513243    -0.001630771825     0.000861700704
      21        0.000271775691    -0.000262500779     0.000302327048
      22       -0.035876582456     0.011710414421    -0.013908268515
      23        0.001795185603    -0.000711255415     0.000768140537
      24        0.001382176520     0.001075899043    -0.001875743063
      25        0.005407982912     0.019130845815     0.009558833490
      26       -0.068573355046    -0.017962897936     0.002755658318
      27        0.033749525987    -0.046776467008     0.021889035699
      28        0.012069424439    -0.010547617045     0.012277596221

hessian() using ref_gradient to assess stationary point.

  Based on options and gradient (rms=1.48E-02), recommend projecting translations and not projecting rotations.
hessian() will perform frequency computation by finite difference of analytic gradients.

         ----------------------------------------------------------
                                   FINDIF
                     R. A. King and Jonathon Misiewicz
         ---------------------------------------------------------

  Using finite-differences of gradients to determine vibrational frequencies and 
  normal modes. Resulting frequencies are only valid at stationary points.
    Generating geometries for use with 3-point formula.
    Displacement size will be 5.00e-03.
    Number of atoms is 28.
    Number of irreps is 1.
    Number of SALCs is 81.
    Translations projected? 1. Rotations projected? 0.
    Index of SALCs per irrep:
     1 :  0  1  2  3  4  5  6  7  8  9  10  11  12  13  14  15  16  17  18  19  20  21  22  23  24  25  26  27  28  29  30  31  32  33  34  35  36  37  38  39  40  41  42  43  44  45  46  47  48  49  50  51  52  53  54  55  56  57  58  59  60  61  62  63  64  65  66  67  68  69  70  71  72  73  74  75  76  77  78  79  80 
    Number of SALCs per irrep:
     Irrep 1: 81
    Number of geometries (including reference) is 163.
    Number of displacements per irrep:
      Irrep 1: 162

  //>>>>>>>>>>>>>>>>>>>>>>>>>>>>>>>>>>>//
  //   Loading displacement 1 of 163   //
  //<<<<<<<<<<<<<<<<<<<<<<<<<<<<<<<<<<<//

Scratch directory: /scratch1/maxbuskirk/
gradient() will perform analytic gradient computation.

*** tstart() called on skylm005.palmetto.clemson.edu
*** at Fri Feb 18 06:25:17 2022

   => Loading Basis Set <=

    Name: CC-PVDZ
    Role: ORBITAL
    Keyword: BASIS
    atoms 1-12         entry C          line   138 file /home/maxbuskirk/.conda/envs/psifour/share/psi4/basis/cc-pvdz.gbs 
    atoms 13-21, 23-28 entry H          line    22 file /home/maxbuskirk/.conda/envs/psifour/share/psi4/basis/cc-pvdz.gbs 
    atoms 22           entry O          line   198 file /home/maxbuskirk/.conda/envs/psifour/share/psi4/basis/cc-pvdz.gbs 


         ---------------------------------------------------------
                                   SCF
               by Justin Turney, Rob Parrish, Andy Simmonett
                          and Daniel G. A. Smith
                              RHF Reference
                        1 Threads,  59127 MiB Core
         ---------------------------------------------------------

  ==> Geometry <==

    Molecular point group: c1
    Full point group: C1

    Geometry (in Bohr), charge = 1, multiplicity = 1:

       Center              X                  Y                   Z               Mass       
    ------------   -----------------  -----------------  -----------------  -----------------
         C           -2.609054306218     1.219378788746    -1.387348241562    12.000000000000
         C           -0.444326105330     0.216665540138    -0.211078766140    12.000000000000
         C           -0.762598410359    -1.499859627017     1.803552587032    12.000000000000
         C           -3.185731860071    -2.200507713375     2.618638708095    12.000000000000
         C           -5.333621030432    -1.193217548091     1.424413055029    12.000000000000
         C           -5.038785960338     0.517670566032    -0.581897834012    12.000000000000
         C            2.152855938189     0.997540059426    -0.994271979384    12.000000000000
         C            3.717738142680     2.664098978098     0.807648021655    12.000000000000
         C            6.105322064521     1.095446769986     1.377190688880    12.000000000000
         C            6.633307764521    -0.368718701197    -1.087554530115    12.000000000000
         C            4.011507407240    -0.870163197766    -2.191432377123    12.000000000000
         C            2.823954377123     1.207717288825    -3.767278772594    12.000000000000
         H            3.399011265182    -2.810373356665    -2.558957652358     1.007825032230
         H            7.674236944564    -2.137863292316    -0.740861595686     1.007825032230
         H            7.783640748871     0.779586607020    -2.397922750851     1.007825032230
         H            5.661109813388    -0.274153026427     2.888408450861     1.007825032230
         H            7.719127388674     2.247087444815     2.021944455899     1.007825032230
         H            2.637818243491     3.118819996215     2.527928074621     1.007825032230
         H            4.217092602154     4.470423930735    -0.113548111079     1.007825032230
         H           -2.379523672345     2.564686155816    -2.942222456493     1.007825032230
         H           -6.703192480953     1.310711142115    -1.518975225104     1.007825032230
         O           -7.719449396702    -1.887735362898     2.215741539243    15.994914619570
         H           -3.401391184960    -3.542517508356     4.177398199940     1.007825032230
         H            0.911872791601    -2.303769907774     2.718038302294     1.007825032230
         H            1.386118460046     0.641954073851    -5.139887012999     1.007825032230
         H            4.035865976997     2.780073360143    -4.352734823522     1.007825032230
         H            2.422937485765     2.894286517440    -4.886830008086     1.007825032230
         H           -8.946331406942    -1.045427736998     1.221838193833     1.007825032230

  Running in c1 symmetry.

  Rotational constants: A =      0.07090  B =      0.01432  C =      0.01322 [cm^-1]
  Rotational constants: A =   2125.64030  B =    429.31349  C =    396.18533 [MHz]
  Nuclear repulsion =  775.693678530217312

  Charge       = 1
  Multiplicity = 1
  Electrons    = 94
  Nalpha       = 47
  Nbeta        = 47

  ==> Algorithm <==

  SCF Algorithm Type is DF.
  DIIS enabled.
  MOM disabled.
  Fractional occupation disabled.
  Guess Type is SAD.
  Energy threshold   = 1.00e-10
  Density threshold  = 1.00e-10
  Integral threshold = 1.00e-12

  ==> Primary Basis <==

  Basis Set: CC-PVDZ
    Blend: CC-PVDZ
    Number of shells: 123
    Number of basis functions: 257
    Number of Cartesian functions: 270
    Spherical Harmonics?: true
    Max angular momentum: 2

   => Loading Basis Set <=

    Name: (CC-PVDZ AUX)
    Role: JKFIT
    Keyword: DF_BASIS_SCF
    atoms 1-12         entry C          line   121 file /home/maxbuskirk/.conda/envs/psifour/share/psi4/basis/cc-pvdz-jkfit.gbs 
    atoms 13-21, 23-28 entry H          line    51 file /home/maxbuskirk/.conda/envs/psifour/share/psi4/basis/cc-pvdz-jkfit.gbs 
    atoms 22           entry O          line   221 file /home/maxbuskirk/.conda/envs/psifour/share/psi4/basis/cc-pvdz-jkfit.gbs 

  ==> Integral Setup <==

  DFHelper Memory: AOs need 0.569 GiB; user supplied 43.306 GiB. Using in-core AOs.

  ==> MemDFJK: Density-Fitted J/K Matrices <==

    J tasked:                   Yes
    K tasked:                   Yes
    wK tasked:                   No
    OpenMP threads:               1
    Memory [MiB]:             44345
    Algorithm:                 Core
    Schwarz Cutoff:           1E-12
    Mask sparsity (%):      11.5823
    Fitting Condition:        1E-10

   => Auxiliary Basis Set <=

  Basis Set: (CC-PVDZ AUX)
    Blend: CC-PVDZ-JKFIT
    Number of shells: 447
    Number of basis functions: 1255
    Number of Cartesian functions: 1428
    Spherical Harmonics?: true
    Max angular momentum: 3

  Minimum eigenvalue in the overlap matrix is 3.3934923526E-04.
  Reciprocal condition number of the overlap matrix is 4.7773124650E-05.
    Using symmetric orthogonalization.

  ==> Pre-Iterations <==

  SCF Guess: Superposition of Atomic Densities via on-the-fly atomic UHF (no occupation information).

   -------------------------
    Irrep   Nso     Nmo    
   -------------------------
     A        257     257 
   -------------------------
    Total     257     257
   -------------------------

  ==> Iterations <==

                           Total Energy        Delta E     RMS |[F,P]|

   @DF-RHF iter SAD:  -537.97489221225680   -5.37975e+02   0.00000e+00 
   @DF-RHF iter   1:  -537.36797566914811    6.06917e-01   2.46962e-03 DIIS
   @DF-RHF iter   2:  -537.60434789125975   -2.36372e-01   1.05573e-03 DIIS
   @DF-RHF iter   3:  -537.64102237397435   -3.66745e-02   2.86881e-04 DIIS
   @DF-RHF iter   4:  -537.64490229879391   -3.87992e-03   9.69274e-05 DIIS
   @DF-RHF iter   5:  -537.64528407305920   -3.81774e-04   2.55328e-05 DIIS
   @DF-RHF iter   6:  -537.64532090138061   -3.68283e-05   8.00954e-06 DIIS
   @DF-RHF iter   7:  -537.64532559810880   -4.69673e-06   3.31670e-06 DIIS
   @DF-RHF iter   8:  -537.64532647967917   -8.81570e-07   1.21136e-06 DIIS
   @DF-RHF iter   9:  -537.64532666836976   -1.88691e-07   5.54619e-07 DIIS
   @DF-RHF iter  10:  -537.64532670865401   -4.02842e-08   2.56553e-07 DIIS
   @DF-RHF iter  11:  -537.64532672113364   -1.24796e-08   1.03573e-07 DIIS
   @DF-RHF iter  12:  -537.64532672312271   -1.98906e-09   3.92314e-08 DIIS
   @DF-RHF iter  13:  -537.64532672332393   -2.01226e-10   1.48490e-08 DIIS
   @DF-RHF iter  14:  -537.64532672335110   -2.71712e-11   3.98563e-09 DIIS
   @DF-RHF iter  15:  -537.64532672335156   -4.54747e-13   1.47295e-09 DIIS
   @DF-RHF iter  16:  -537.64532672335190   -3.41061e-13   6.17685e-10 DIIS
   @DF-RHF iter  17:  -537.64532672335292   -1.02318e-12   2.65907e-10 DIIS
   @DF-RHF iter  18:  -537.64532672335270    2.27374e-13   1.16053e-10 DIIS
   @DF-RHF iter  19:  -537.64532672335213    5.68434e-13   5.59197e-11 DIIS
  Energy and wave function converged.


  ==> Post-Iterations <==

    Orbital Energies [Eh]
    ---------------------

    Doubly Occupied:                                                      

       1A    -20.691983     2A    -11.491930     3A    -11.463605  
       4A    -11.439728     5A    -11.429342     6A    -11.394862  
       7A    -11.389747     8A    -11.383390     9A    -11.380374  
      10A    -11.378225    11A    -11.376442    12A    -11.362869  
      13A    -11.359839    14A     -1.506034    15A     -1.406910  
      16A     -1.274305    17A     -1.248997    18A     -1.170028  
      19A     -1.148257    20A     -1.141316    21A     -1.105054  
      22A     -0.975962    23A     -0.968056    24A     -0.960620  
      25A     -0.917832    26A     -0.878550    27A     -0.856015  
      28A     -0.841206    29A     -0.795167    30A     -0.778341  
      31A     -0.760505    32A     -0.750568    33A     -0.736158  
      34A     -0.711313    35A     -0.699038    36A     -0.689568  
      37A     -0.678538    38A     -0.667439    39A     -0.655113  
      40A     -0.639581    41A     -0.628690    42A     -0.624938  
      43A     -0.612885    44A     -0.599585    45A     -0.578297  
      46A     -0.463400    47A     -0.432576  

    Virtual:                                                              

      48A     -0.071122    49A     -0.025993    50A     -0.000615  
      51A      0.012708    52A      0.026152    53A      0.049754  
      54A      0.074212    55A      0.074929    56A      0.089734  
      57A      0.092126    58A      0.108020    59A      0.115169  
      60A      0.120822    61A      0.132754    62A      0.144412  
      63A      0.147083    64A      0.161459    65A      0.178522  
      66A      0.189889    67A      0.216361    68A      0.218057  
      69A      0.232478    70A      0.256410    71A      0.261158  
      72A      0.302878    73A      0.310342    74A      0.332459  
      75A      0.343922    76A      0.355590    77A      0.371123  
      78A      0.374118    79A      0.414541    80A      0.453773  
      81A      0.466011    82A      0.480880    83A      0.496459  
      84A      0.519364    85A      0.520103    86A      0.525777  
      87A      0.536023    88A      0.541259    89A      0.563462  
      90A      0.576298    91A      0.577989    92A      0.590947  
      93A      0.598805    94A      0.603222    95A      0.608208  
      96A      0.617814    97A      0.634601    98A      0.637771  
      99A      0.659241   100A      0.667817   101A      0.678065  
     102A      0.689041   103A      0.692524   104A      0.695981  
     105A      0.705594   106A      0.711959   107A      0.714989  
     108A      0.717201   109A      0.739775   110A      0.746450  
     111A      0.753151   112A      0.754970   113A      0.759593  
     114A      0.767842   115A      0.772397   116A      0.783896  
     117A      0.790981   118A      0.801389   119A      0.803707  
     120A      0.826293   121A      0.830700   122A      0.845175  
     123A      0.870650   124A      0.886311   125A      0.903613  
     126A      0.968878   127A      0.988467   128A      1.007613  
     129A      1.018107   130A      1.032770   131A      1.041966  
     132A      1.049209   133A      1.087719   134A      1.104722  
     135A      1.112502   136A      1.131312   137A      1.145903  
     138A      1.169223   139A      1.175428   140A      1.182041  
     141A      1.189174   142A      1.203110   143A      1.235900  
     144A      1.240771   145A      1.265254   146A      1.266338  
     147A      1.285847   148A      1.307006   149A      1.315088  
     150A      1.331424   151A      1.356931   152A      1.376804  
     153A      1.396988   154A      1.438010   155A      1.450423  
     156A      1.481876   157A      1.490662   158A      1.507745  
     159A      1.511831   160A      1.530092   161A      1.551857  
     162A      1.579641   163A      1.589456   164A      1.610154  
     165A      1.630208   166A      1.635296   167A      1.657505  
     168A      1.663138   169A      1.674812   170A      1.690022  
     171A      1.698549   172A      1.708240   173A      1.739432  
     174A      1.742499   175A      1.756161   176A      1.763649  
     177A      1.773580   178A      1.781292   179A      1.788785  
     180A      1.793750   181A      1.803581   182A      1.809152  
     183A      1.819762   184A      1.829140   185A      1.841964  
     186A      1.843984   187A      1.854888   188A      1.865117  
     189A      1.877474   190A      1.883408   191A      1.893903  
     192A      1.901324   193A      1.927536   194A      1.936941  
     195A      1.941212   196A      1.951412   197A      1.956214  
     198A      1.976516   199A      1.987971   200A      2.001129  
     201A      2.016929   202A      2.034586   203A      2.057308  
     204A      2.083940   205A      2.088924   206A      2.104602  
     207A      2.112191   208A      2.125525   209A      2.130130  
     210A      2.152580   211A      2.168079   212A      2.189478  
     213A      2.200640   214A      2.228473   215A      2.238164  
     216A      2.241401   217A      2.267144   218A      2.283398  
     219A      2.290966   220A      2.298289   221A      2.315214  
     222A      2.335877   223A      2.367722   224A      2.379248  
     225A      2.412103   226A      2.424139   227A      2.439544  
     228A      2.451776   229A      2.514011   230A      2.517613  
     231A      2.554197   232A      2.567965   233A      2.600869  
     234A      2.612780   235A      2.621085   236A      2.629911  
     237A      2.642438   238A      2.649363   239A      2.702431  
     240A      2.713090   241A      2.755050   242A      2.789851  
     243A      2.816499   244A      2.838117   245A      2.861262  
     246A      2.905161   247A      2.928209   248A      2.976621  
     249A      3.051492   250A      3.111299   251A      3.116531  
     252A      3.149064   253A      3.232973   254A      3.441626  
     255A      3.549235   256A      3.805195   257A      4.089130  

    Final Occupation by Irrep:
              A 
    DOCC [    47 ]

  @DF-RHF Final Energy:  -537.64532672335213

   => Energetics <=

    Nuclear Repulsion Energy =            775.6936785302173121
    One-Electron Energy =               -2253.7916547793797690
    Two-Electron Energy =                 940.4526495258103296
    Total Energy =                       -537.6453267233521274

Computation Completed


Properties will be evaluated at   0.000000,   0.000000,   0.000000 [a0]

Properties computed using the SCF density matrix

  Nuclear Dipole Moment: [e a0]
     X:    13.0862      Y:     4.3079      Z:    -4.5070

  Electronic Dipole Moment: [e a0]
     X:   -10.7633      Y:    -2.8607      Z:     1.6858

  Dipole Moment: [e a0]
     X:     2.3229      Y:     1.4473      Z:    -2.8212     Total:     3.9306

  Dipole Moment: [D]
     X:     5.9041      Y:     3.6786      Z:    -7.1708     Total:     9.9905


*** tstop() called on skylm005.palmetto.clemson.edu at Fri Feb 18 06:25:31 2022
Module time:
	user time   =      12.33 seconds =       0.21 minutes
	system time =       0.75 seconds =       0.01 minutes
	total time  =         14 seconds =       0.23 minutes
Total time:
	user time   =   10322.78 seconds =     172.05 minutes
	system time =    2965.75 seconds =      49.43 minutes
	total time  =      23576 seconds =     392.93 minutes
 MINTS: Wrapper to libmints.
   by Justin Turney

   Calculation information:
      Number of threads:                 1
      Number of atoms:                  28
      Number of AO shells:             123
      Number of SO shells:             123
      Number of primitives:            361
      Number of atomic orbitals:       270
      Number of basis functions:       257

      Number of irreps:                  1
      Integral cutoff                 1.00e-12
      Number of functions per irrep: [ 257 ]

 OEINTS: Overlap, kinetic, potential, dipole, and quadrupole integrals
         stored in file 35.

      Computing two-electron integrals...done
      Computed 343701790 non-zero two-electron integrals.
        Stored in file 33.


*** tstart() called on skylm005.palmetto.clemson.edu
*** at Fri Feb 18 06:31:43 2022


	Wfn Parameters:
	--------------------
	Wavefunction         = CCSD
	Number of irreps     = 1
	Number of MOs        = 257
	Number of active MOs = 257
	AO-Basis             = NONE
	Semicanonical        = false
	Reference            = RHF
	Print Level          = 1

	IRREP	# MOs	# FZDC	# DOCC	# SOCC	# VIRT	# FZVR
	-----	-----	------	------	------	------	------
	 A	   257	    0	    47	    0	    210	    0
	Transforming integrals...
	IWL integrals will be deleted.
	(OO|OO)...
	Presorting SO-basis two-electron integrals.
	Sorting File: SO Ints (nn|nn) nbuckets = 1
	Constructing frozen core operators
	Starting first half-transformation.
	Sorting half-transformed integrals.
	First half integral transformation complete.
	Starting second half-transformation.
	Two-electron integral transformation complete.
	(OO|OV)...
	Starting second half-transformation.
	Two-electron integral transformation complete.
	(OO|VV)...
	Starting second half-transformation.
	Two-electron integral transformation complete.
	(OV|OO)...
	Starting first half-transformation.
	Sorting half-transformed integrals.
	First half integral transformation complete.
	Starting second half-transformation.
	Two-electron integral transformation complete.
	(OV|OV)...
	Starting second half-transformation.
	Two-electron integral transformation complete.
	(OV|VV)...
	Starting second half-transformation.
	Two-electron integral transformation complete.
	(VV|OO)...
	Starting first half-transformation.
	Sorting half-transformed integrals.
	First half integral transformation complete.
	Starting second half-transformation.
	Two-electron integral transformation complete.
	(VV|OV)...
	Starting second half-transformation.
	Two-electron integral transformation complete.
	(VV|VV)...
	Starting second half-transformation.
	Two-electron integral transformation complete.
	Frozen core energy     =      0.00000000000000

	Size of irrep 0 of <ab|cd> integrals:   1944.810 (MW) /  15558.480 (MB)
	Total:                                  1944.810 (MW) /  15558.480 (MB)

	Size of irrep 0 of <ia|bc> integrals:    435.267 (MW) /   3482.136 (MB)
	Total:                                   435.267 (MW) /   3482.136 (MB)

	Size of irrep 0 of tijab amplitudes:      97.417 (MW) /    779.335 (MB)
	Total:                                    97.417 (MW) /    779.335 (MB)

	Nuclear Rep. energy          =    775.69367853021731
	SCF energy                   =   -537.64532672335213
	One-electron energy          =  -2253.79165481041036
	Two-electron energy          =    940.45193048721376
	Reference energy             =   -537.64604579297929

*** tstop() called on skylm005.palmetto.clemson.edu at Fri Feb 18 06:42:54 2022
Module time:
	user time   =     188.99 seconds =       3.15 minutes
	system time =     104.81 seconds =       1.75 minutes
	total time  =        671 seconds =      11.18 minutes
Total time:
	user time   =   10671.74 seconds =     177.86 minutes
	system time =    3083.48 seconds =      51.39 minutes
	total time  =      24619 seconds =     410.32 minutes
            **************************
            *                        *
            *        CCENERGY        *
            *                        *
            **************************

    Nuclear Rep. energy (wfn)     =  775.693678530217312
    SCF energy          (wfn)     = -537.645326723352127
    Reference energy    (file100) = -537.646045792979294

    Input parameters:
    -----------------
    Wave function   =     CCSD
    Reference wfn   =     RHF
    Brueckner       =     No
    Memory (Mbytes) =     62000.0
    Maxiter         =     50
    R_Convergence   =     1.0e-07
    E_Convergence   =     1.0e-08
    Restart         =     Yes
    DIIS            =     Yes
    AO Basis        =     NONE
    ABCD            =     NEW
    Cache Level     =     2
    Cache Type      =     LOW
    Print Level     =     1
    Num. of threads =     1
    # Amps to Print =     10
    Print MP2 Amps? =     No
    Analyze T2 Amps =     No
    Print Pair Ener =     No
    Local CC        =     No
    SCS-MP2         =     False
    SCSN-MP2        =     False
    SCS-CCSD        =     False

MP2 correlation energy -1.8418262969861907
                Solving CC Amplitude Equations
                ------------------------------
  Iter             Energy              RMS        T1Diag      D1Diag    New D1Diag    D2Diag
  ----     ---------------------    ---------   ----------  ----------  ----------   --------
     0        -1.841826296986191    0.000e+00    0.000000    0.000000    0.000000    0.177689
     1        -1.865506607480133    1.298e-01    0.007489    0.030217    0.030217    0.166244
     2        -1.914069800839772    4.513e-02    0.007533    0.027515    0.027515    0.179247
     3        -1.925515265952824    1.973e-02    0.008736    0.036727    0.036727    0.182947
     4        -1.925617202256788    6.128e-03    0.008898    0.037403    0.037403    0.184472
     5        -1.925693964417041    3.006e-03    0.009012    0.039130    0.039130    0.185565
     6        -1.925781306430761    8.499e-04    0.009048    0.039733    0.039733    0.185865
     7        -1.925758609300650    3.392e-04    0.009056    0.039932    0.039932    0.185913
     8        -1.925748373176930    1.372e-04    0.009060    0.040024    0.040024    0.185922
     9        -1.925750489634764    6.765e-05    0.009062    0.040068    0.040068    0.185923
    10        -1.925750475073177    3.326e-05    0.009063    0.040091    0.040091    0.185918
    11        -1.925748996137476    1.513e-05    0.009064    0.040103    0.040103    0.185916
    12        -1.925748767572633    7.033e-06    0.009064    0.040107    0.040107    0.185915
    13        -1.925748446282552    2.740e-06    0.009064    0.040107    0.040107    0.185914
    14        -1.925748336007471    1.357e-06    0.009064    0.040107    0.040107    0.185914
    15        -1.925748303991162    5.557e-07    0.009064    0.040107    0.040107    0.185914
    16        -1.925748292385913    2.793e-07    0.009064    0.040106    0.040106    0.185914
    17        -1.925748291219565    1.229e-07    0.009064    0.040106    0.040106    0.185914
    18        -1.925748291313686    5.880e-08    0.009064    0.040106    0.040106    0.185914

    Iterations converged.


    Largest TIA Amplitudes:
             35   3        -0.0234940403
             43   3         0.0161317248
             44   3         0.0127963687
             45  47         0.0125491893
             45   2        -0.0116970007
             45  87        -0.0109528796
             35  21        -0.0105564804
             45  50         0.0099901796
             46  43        -0.0094949537
             45  46        -0.0088846688

    Largest TIjAb Amplitudes:
     45  45   2   2        -0.0757464986
     46  46   3   3        -0.0638574558
     45  46   3   2         0.0381867983
     46  45   2   3         0.0381867983
     46  46   2   2        -0.0328706143
     45  45   3   3        -0.0271353025
     45  45   1   2         0.0204013005
     45  45   2   1         0.0204013005
     46  46   3   4         0.0195405634
     46  46   4   3         0.0195405634

    SCF energy       (wfn)                    = -537.645326723352127
    Reference energy (file100)                = -537.646045792979294

    Opposite-spin MP2 correlation energy      =   -1.357943723952420
    Same-spin MP2 correlation energy          =   -0.483882573033771
    Singles MP2 correlation energy            =   -0.000000000000000
    MP2 correlation energy                    =   -1.841826296986191
      * MP2 total energy                      = -539.487872089965435

    Opposite-spin CCSD correlation energy     =   -1.490712949567802
    Same-spin CCSD correlation energy         =   -0.435035341745883
    Singles CCSD correlation energy           =    0.000000000000000
    CCSD correlation energy                   =   -1.925748291313686
      * CCSD total energy                     = -539.571794084292947


			**************************
			*                        *
			*         CCHBAR         *
			*                        *
			**************************


			**************************
			*        CCLAMBDA        *
			**************************


	Nuclear Rep. energy (wfn)     =  775.693678530217312
	Reference           (wfn)     =                    0
	SCF energy          (wfn)     = -537.645326723352127
	Reference energy    (CC_INFO) = -537.646045792979294
	CCSD energy         (CC_INFO) =   -1.925748291313686
	Total CCSD energy   (CC_INFO) = -539.571794084292947

	Input parameters:
	-----------------
	Maxiter           =     50
	Convergence       = 1.0e-07
	Restart           =     No
	Cache Level       =     2
	Model III         =     No
	DIIS              =     Yes
	AO Basis          =     No
	ABCD              =     NEW
	Local CC          =     No
	Parameters for left-handed eigenvectors:
	    Irr   Root  Ground-State?    EOM energy        R0
	  1   0     0        Yes       0.0000000000   1.0000000000
	Labels for eigenvector 1:
	LIA 0 -1, Lia 0 -1, LIJAB 0 -1, Lijab 0 -1, LIjAb 0 -1, 2LIjAb - LIjbA 0 -1
	Symmetry of left-hand state: A
	Symmetry of left-hand eigenvector: A

	          Solving Lambda Equations
	          ------------------------
	Iter     PseudoEnergy or Norm         RMS  
	----     ---------------------     --------
	   0        -1.925881101823481    4.880e-08
	   1        -1.870361333884503    3.520e-02
	   2        -1.865316724742304    7.473e-03
	   3        -1.863985247247774    3.760e-03
	   4        -1.863631619586311    1.408e-03
	   5        -1.863723901988112    7.730e-04
	   6        -1.863739160000899    2.829e-04
	   7        -1.863728756313031    1.288e-04
	   8        -1.863731413356142    5.292e-05
	   9        -1.863732814900702    2.254e-05
	  10        -1.863732413312002    9.209e-06
	  11        -1.863732625730708    4.483e-06
	  12        -1.863732532713267    1.954e-06
	  13        -1.863732443881700    8.846e-07
	  14        -1.863732446100611    4.703e-07
	  15        -1.863732440448759    2.161e-07
	  16        -1.863732438500173    1.105e-07
	  17        -1.863732439192931    4.880e-08

	Largest LIA Amplitudes:
	         35   3        -0.0163363380
	         43   3         0.0111220019
	         45  47         0.0099486603
	         45  87        -0.0088184223
	         45   2        -0.0086960392
	         44   3         0.0085139954
	         45  50         0.0079670195
	         35  21        -0.0071477259
	         46  43        -0.0070986287
	         45  46        -0.0070250717

	Largest LIjAb Amplitudes:
	 45  45   2   2        -0.0712675046
	 46  46   3   3        -0.0596306797
	 45  46   3   2         0.0362170394
	 46  45   2   3         0.0362170394
	 46  46   2   2        -0.0292318218
	 45  45   3   3        -0.0243024429
	 45  45   1   2         0.0191863256
	 45  45   2   1         0.0191863256
	 46  46   3   4         0.0182568639
	 46  46   4   3         0.0182568639

	Iterations converged.

	Overlap <L|e^T> =        0.29408674209

			**************************
			*                        *
			*        CCDENSITY       *
			*                        *
			**************************


	Input parameters:
	-----------------
	Wave function    =   CCSD
	Reference wfn    =   RHF
	Dertype          = 1
	Tolerance        = 1.0e-14
	Cache Level      = 2
	AO Basis         = No
	OPDM Only        = No
	Relax OPDM       = Yes
	Compute Xi       = No
	Use Zeta         = No
	Xi connected     = Yes
	Compute NO       = No

	Nuclear Rep. energy (wfn)     =  775.693678530217312
	SCF energy          (wfn)     = -537.645326723352127
	Reference energy    (file100) = -537.646045792979294
	CCSD energy         (CC_INFO) =   -1.925748291313686
	Total CCSD energy   (CC_INFO) = -539.571794084292947
	Number of States = 1

	Ground?  State     EOM Energy       R0
	  Yes     0  A    0.0000000000   1.00000000

	Virial Theorem Data:
	--------------------
	Kinetic energy (ref)   =  537.065813532534776
	Kinetic energy (corr)  =    1.791406796166950
	Kinetic energy (total) =  538.857220328701715
	-V/T (ref)             =    2.001080374594369
	-V/T (corr)            =    2.074992176782060
	-V/T (total)           =    2.001326091084305
    Molecular point group: c1
    Full point group: C1

    Geometry (in Bohr), charge = 1, multiplicity = 1:

       Center              X                  Y                   Z       
    ------------   -----------------  -----------------  -----------------
         C           -2.609054306218     1.219378788746    -1.387348241562
         C           -0.444326105330     0.216665540138    -0.211078766140
         C           -0.762598410359    -1.499859627017     1.803552587032
         C           -3.185731860071    -2.200507713375     2.618638708095
         C           -5.333621030432    -1.193217548091     1.424413055029
         C           -5.038785960338     0.517670566032    -0.581897834012
         C            2.152855938189     0.997540059426    -0.994271979384
         C            3.717738142680     2.664098978098     0.807648021655
         C            6.105322064521     1.095446769986     1.377190688880
         C            6.633307764521    -0.368718701197    -1.087554530115
         C            4.011507407240    -0.870163197766    -2.191432377123
         C            2.823954377123     1.207717288825    -3.767278772594
         H            3.399011265182    -2.810373356665    -2.558957652358
         H            7.674236944564    -2.137863292316    -0.740861595686
         H            7.783640748871     0.779586607020    -2.397922750851
         H            5.661109813388    -0.274153026427     2.888408450861
         H            7.719127388674     2.247087444815     2.021944455899
         H            2.637818243491     3.118819996215     2.527928074621
         H            4.217092602154     4.470423930735    -0.113548111079
         H           -2.379523672345     2.564686155816    -2.942222456493
         H           -6.703192480953     1.310711142115    -1.518975225104
         O           -7.719449396702    -1.887735362898     2.215741539243
         H           -3.401391184960    -3.542517508356     4.177398199940
         H            0.911872791601    -2.303769907774     2.718038302294
         H            1.386118460046     0.641954073851    -5.139887012999
         H            4.035865976997     2.780073360143    -4.352734823522
         H            2.422937485765     2.894286517440    -4.886830008086
         H           -8.946331406942    -1.045427736998     1.221838193833

	Presorting MO-basis TPDM.
	Sorting File: MO TPDM (AA|AA) nbuckets = 1
	Starting first half-transformation.
	Sorting half-transformed TPDM.
	First half integral transformation complete.


  -Total gradient:
     Atom            X                  Y                   Z
    ------   -----------------  -----------------  -----------------
       1       -0.002151078647     0.002976387554    -0.003118216770
       2        0.010331905391     0.000399428460     0.006953149527
       3        0.002503481380    -0.000881358364     0.002203339750
       4       -0.004201339022     0.003472487301    -0.003961283123
       5        0.023973042087    -0.002112515359     0.002384960009
       6       -0.006353512473    -0.003421017277     0.003947458939
       7       -0.005995861201     0.009840870697    -0.007683581151
       8       -0.005116356560    -0.004258981518     0.000378471503
       9        0.000575970417     0.000377714300    -0.001937162233
      10       -0.009725119801    -0.002806421828     0.000485495496
      11       -0.009393146076     0.002764986983    -0.027209000772
      12        0.049883782278     0.042077943337    -0.020859193925
      13        0.001204884712    -0.002530996270     0.011187952385
      14        0.001491091289     0.000355170812     0.002243069766
      15       -0.001395901465     0.001980053990     0.000346781713
      16       -0.000357794962    -0.000125024232    -0.000774897199
      17        0.000591988378     0.000942337049     0.000999282665
      18        0.001120805189    -0.000220546494     0.002683218641
      19       -0.000411487811    -0.002856168419    -0.000899125662
      20        0.003198513245    -0.001630771822     0.000861700700
      21        0.000271775686    -0.000262500774     0.000302327044
      22       -0.035876582461     0.011710414417    -0.013908268510
      23        0.001795185603    -0.000711255417     0.000768140540
      24        0.001382176524     0.001075899040    -0.001875743060
      25        0.005407982909     0.019130845813     0.009558833488
      26       -0.068573355043    -0.017962897933     0.002755658318
      27        0.033749525986    -0.046776467006     0.021889035697
      28        0.012069424437    -0.010547617044     0.012277596220


  //>>>>>>>>>>>>>>>>>>>>>>>>>>>>>>>>>>>//
  //   Loading displacement 2 of 163   //
  //<<<<<<<<<<<<<<<<<<<<<<<<<<<<<<<<<<<//

Scratch directory: /scratch1/maxbuskirk/
gradient() will perform analytic gradient computation.

*** tstart() called on skylm005.palmetto.clemson.edu
*** at Fri Feb 18 12:52:47 2022

   => Loading Basis Set <=

    Name: CC-PVDZ
    Role: ORBITAL
    Keyword: BASIS
    atoms 1-12         entry C          line   138 file /home/maxbuskirk/.conda/envs/psifour/share/psi4/basis/cc-pvdz.gbs 
    atoms 13-21, 23-28 entry H          line    22 file /home/maxbuskirk/.conda/envs/psifour/share/psi4/basis/cc-pvdz.gbs 
    atoms 22           entry O          line   198 file /home/maxbuskirk/.conda/envs/psifour/share/psi4/basis/cc-pvdz.gbs 


         ---------------------------------------------------------
                                   SCF
               by Justin Turney, Rob Parrish, Andy Simmonett
                          and Daniel G. A. Smith
                              RHF Reference
                        1 Threads,  59127 MiB Core
         ---------------------------------------------------------

  ==> Geometry <==

    Molecular point group: c1
    Full point group: C1

    Geometry (in Bohr), charge = 1, multiplicity = 1:

       Center              X                  Y                   Z               Mass       
    ------------   -----------------  -----------------  -----------------  -----------------
         C           -2.610447348858     1.219378788746    -1.387348241562    12.000000000000
         C           -0.444223620645     0.216665540138    -0.211078766140    12.000000000000
         C           -0.762495925674    -1.499859627017     1.803552587032    12.000000000000
         C           -3.185629375386    -2.200507713375     2.618638708095    12.000000000000
         C           -5.333518545747    -1.193217548091     1.424413055029    12.000000000000
         C           -5.038683475653     0.517670566032    -0.581897834012    12.000000000000
         C            2.152958422874     0.997540059426    -0.994271979384    12.000000000000
         C            3.717840627365     2.664098978098     0.807648021655    12.000000000000
         C            6.105424549206     1.095446769986     1.377190688880    12.000000000000
         C            6.633410249206    -0.368718701197    -1.087554530115    12.000000000000
         C            4.011609891925    -0.870163197766    -2.191432377123    12.000000000000
         C            2.824056861808     1.207717288825    -3.767278772594    12.000000000000
         H            3.399113749867    -2.810373356665    -2.558957652358     1.007825032230
         H            7.674339429249    -2.137863292316    -0.740861595686     1.007825032230
         H            7.783743233556     0.779586607020    -2.397922750851     1.007825032230
         H            5.661212298073    -0.274153026427     2.888408450861     1.007825032230
         H            7.719229873359     2.247087444815     2.021944455899     1.007825032230
         H            2.637920728176     3.118819996215     2.527928074621     1.007825032230
         H            4.217195086839     4.470423930735    -0.113548111079     1.007825032230
         H           -2.379421187660     2.564686155816    -2.942222456493     1.007825032230
         H           -6.703089996268     1.310711142115    -1.518975225104     1.007825032230
         O           -7.719346912017    -1.887735362898     2.215741539243    15.994914619570
         H           -3.401288700275    -3.542517508356     4.177398199940     1.007825032230
         H            0.911975276286    -2.303769907774     2.718038302294     1.007825032230
         H            1.386220944731     0.641954073851    -5.139887012999     1.007825032230
         H            4.035968461682     2.780073360143    -4.352734823522     1.007825032230
         H            2.423039970450     2.894286517440    -4.886830008086     1.007825032230
         H           -8.946228922257    -1.045427736998     1.221838193833     1.007825032230

  Running in c1 symmetry.

  Rotational constants: A =      0.07090  B =      0.01432  C =      0.01322 [cm^-1]
  Rotational constants: A =   2125.58108  B =    429.30616  C =    396.17734 [MHz]
  Nuclear repulsion =  775.688267057564758

  Charge       = 1
  Multiplicity = 1
  Electrons    = 94
  Nalpha       = 47
  Nbeta        = 47

  ==> Algorithm <==

  SCF Algorithm Type is DF.
  DIIS enabled.
  MOM disabled.
  Fractional occupation disabled.
  Guess Type is SAD.
  Energy threshold   = 1.00e-10
  Density threshold  = 1.00e-10
  Integral threshold = 1.00e-12

  ==> Primary Basis <==

  Basis Set: CC-PVDZ
    Blend: CC-PVDZ
    Number of shells: 123
    Number of basis functions: 257
    Number of Cartesian functions: 270
    Spherical Harmonics?: true
    Max angular momentum: 2

   => Loading Basis Set <=

    Name: (CC-PVDZ AUX)
    Role: JKFIT
    Keyword: DF_BASIS_SCF
    atoms 1-12         entry C          line   121 file /home/maxbuskirk/.conda/envs/psifour/share/psi4/basis/cc-pvdz-jkfit.gbs 
    atoms 13-21, 23-28 entry H          line    51 file /home/maxbuskirk/.conda/envs/psifour/share/psi4/basis/cc-pvdz-jkfit.gbs 
    atoms 22           entry O          line   221 file /home/maxbuskirk/.conda/envs/psifour/share/psi4/basis/cc-pvdz-jkfit.gbs 

  ==> Integral Setup <==

  DFHelper Memory: AOs need 0.569 GiB; user supplied 43.306 GiB. Using in-core AOs.

  ==> MemDFJK: Density-Fitted J/K Matrices <==

    J tasked:                   Yes
    K tasked:                   Yes
    wK tasked:                   No
    OpenMP threads:               1
    Memory [MiB]:             44345
    Algorithm:                 Core
    Schwarz Cutoff:           1E-12
    Mask sparsity (%):      11.5823
    Fitting Condition:        1E-10

   => Auxiliary Basis Set <=

  Basis Set: (CC-PVDZ AUX)
    Blend: CC-PVDZ-JKFIT
    Number of shells: 447
    Number of basis functions: 1255
    Number of Cartesian functions: 1428
    Spherical Harmonics?: true
    Max angular momentum: 3

  Minimum eigenvalue in the overlap matrix is 3.3929871488E-04.
  Reciprocal condition number of the overlap matrix is 4.7766475392E-05.
    Using symmetric orthogonalization.

  ==> Pre-Iterations <==

  SCF Guess: Superposition of Atomic Densities via on-the-fly atomic UHF (no occupation information).

   -------------------------
    Irrep   Nso     Nmo    
   -------------------------
     A        257     257 
   -------------------------
    Total     257     257
   -------------------------

  ==> Iterations <==

                           Total Energy        Delta E     RMS |[F,P]|

   @DF-RHF iter SAD:  -537.97491302752064   -5.37975e+02   0.00000e+00 
   @DF-RHF iter   1:  -537.36794865507193    6.06964e-01   2.46974e-03 DIIS
   @DF-RHF iter   2:  -537.60434485296253   -2.36396e-01   1.05574e-03 DIIS
   @DF-RHF iter   3:  -537.64102096230260   -3.66761e-02   2.86793e-04 DIIS
   @DF-RHF iter   4:  -537.64489986058334   -3.87890e-03   9.68474e-05 DIIS
   @DF-RHF iter   5:  -537.64528102903864   -3.81168e-04   2.55310e-05 DIIS
   @DF-RHF iter   6:  -537.64531784065355   -3.68116e-05   8.00874e-06 DIIS
   @DF-RHF iter   7:  -537.64532253454331   -4.69389e-06   3.31765e-06 DIIS
   @DF-RHF iter   8:  -537.64532341519293   -8.80650e-07   1.21119e-06 DIIS
   @DF-RHF iter   9:  -537.64532360360249   -1.88410e-07   5.54798e-07 DIIS
   @DF-RHF iter  10:  -537.64532364385354   -4.02511e-08   2.56813e-07 DIIS
   @DF-RHF iter  11:  -537.64532365632954   -1.24760e-08   1.03635e-07 DIIS
[...]
         H            3.398900941845    -2.810373356665    -2.558957652358     1.007825032230
         H            7.674126621227    -2.137863292316    -0.740861595686     1.007825032230
         H            7.783530425534     0.779586607020    -2.397922750851     1.007825032230
         H            5.660999490051    -0.274153026427     2.888408450861     1.007825032230
         H            7.719017065337     2.247087444815     2.021944455899     1.007825032230
         H            2.637707920154     3.118819996215     2.527928074621     1.007825032230
         H            4.216982278817     4.470423930735    -0.113548111079     1.007825032230
         H           -2.379633995682     2.564686155816    -2.942222456493     1.007825032230
         H           -6.703302804290     1.310711142115    -1.518975225104     1.007825032230
         O           -7.719559720039    -1.887735362898     2.215741539243    15.994914619570
         H           -3.401501508297    -3.542517508356     4.177398199940     1.007825032230
         H            0.911762468264    -2.303769907774     2.718038302294     1.007825032230
         H            1.386008136709     0.641954073851    -5.139887012999     1.007825032230
         H            4.035755653660     2.780073360143    -4.352734823522     1.007825032230
         H            2.422827162428     2.894286517440    -4.886830008086     1.007825032230
         H           -8.946441730279    -1.045427736998     1.221838193833     1.007825032230

  Running in c1 symmetry.

  Rotational constants: A =      0.07090  B =      0.01432  C =      0.01322 [cm^-1]
  Rotational constants: A =   2125.65447  B =    429.31530  C =    396.18728 [MHz]
  Nuclear repulsion =  775.694844038087695

  Charge       = 1
  Multiplicity = 1
  Electrons    = 94
  Nalpha       = 47
  Nbeta        = 47

  ==> Algorithm <==

  SCF Algorithm Type is DF.
  DIIS enabled.
  MOM disabled.
  Fractional occupation disabled.
  Guess Type is SAD.
  Energy threshold   = 1.00e-10
  Density threshold  = 1.00e-10
  Integral threshold = 1.00e-12

  ==> Primary Basis <==

  Basis Set: CC-PVDZ
    Blend: CC-PVDZ
    Number of shells: 123
    Number of basis functions: 257
    Number of Cartesian functions: 270
    Spherical Harmonics?: true
    Max angular momentum: 2

   => Loading Basis Set <=

    Name: (CC-PVDZ AUX)
    Role: JKFIT
    Keyword: DF_BASIS_SCF
    atoms 1-12         entry C          line   121 file /home/maxbuskirk/.conda/envs/psifour/share/psi4/basis/cc-pvdz-jkfit.gbs 
    atoms 13-21, 23-28 entry H          line    51 file /home/maxbuskirk/.conda/envs/psifour/share/psi4/basis/cc-pvdz-jkfit.gbs 
    atoms 22           entry O          line   221 file /home/maxbuskirk/.conda/envs/psifour/share/psi4/basis/cc-pvdz-jkfit.gbs 

  ==> Integral Setup <==

  DFHelper Memory: AOs need 0.569 GiB; user supplied 43.306 GiB. Using in-core AOs.

  ==> MemDFJK: Density-Fitted J/K Matrices <==

    J tasked:                   Yes
    K tasked:                   Yes
    wK tasked:                   No
    OpenMP threads:               1
    Memory [MiB]:             44345
    Algorithm:                 Core
    Schwarz Cutoff:           1E-12
    Mask sparsity (%):      11.5823
    Fitting Condition:        1E-10

   => Auxiliary Basis Set <=

  Basis Set: (CC-PVDZ AUX)
    Blend: CC-PVDZ-JKFIT
    Number of shells: 447
    Number of basis functions: 1255
    Number of Cartesian functions: 1428
    Spherical Harmonics?: true
    Max angular momentum: 3

  Minimum eigenvalue in the overlap matrix is 3.3933605495E-04.
  Reciprocal condition number of the overlap matrix is 4.7769516457E-05.
    Using symmetric orthogonalization.

  ==> Pre-Iterations <==

  SCF Guess: Superposition of Atomic Densities via on-the-fly atomic UHF (no occupation information).

   -------------------------
    Irrep   Nso     Nmo    
   -------------------------
     A        257     257 
   -------------------------
    Total     257     257
   -------------------------

  ==> Iterations <==

                           Total Energy        Delta E     RMS |[F,P]|

   @DF-RHF iter SAD:  -537.97478408315351   -5.37975e+02   0.00000e+00 
   @DF-RHF iter   1:  -537.36795156069422    6.06833e-01   2.46950e-03 DIIS
   @DF-RHF iter   2:  -537.60431195404863   -2.36360e-01   1.05573e-03 DIIS
   @DF-RHF iter   3:  -537.64098577768539   -3.66738e-02   2.86941e-04 DIIS
   @DF-RHF iter   4:  -537.64486669644066   -3.88092e-03   9.69616e-05 DIIS
   @DF-RHF iter   5:  -537.64524876919131   -3.82073e-04   2.55390e-05 DIIS
   @DF-RHF iter   6:  -537.64528561508337   -3.68459e-05   8.01555e-06 DIIS
   @DF-RHF iter   7:  -537.64529031934831   -4.70426e-06   3.32129e-06 DIIS
   @DF-RHF iter   8:  -537.64529120356156   -8.84213e-07   1.21369e-06 DIIS
   @DF-RHF iter   9:  -537.64529139311810   -1.89557e-07   5.55950e-07 DIIS
   @DF-RHF iter  10:  -537.64529143365780   -4.05397e-08   2.57348e-07 DIIS
   @DF-RHF iter  11:  -537.64529144621031   -1.25525e-08   1.03767e-07 DIIS
   @DF-RHF iter  12:  -537.64529144820779   -1.99748e-09   3.92850e-08 DIIS
   @DF-RHF iter  13:  -537.64529144841174   -2.03954e-10   1.48619e-08 DIIS
   @DF-RHF iter  14:  -537.64529144843618   -2.44427e-11   3.98770e-09 DIIS
   @DF-RHF iter  15:  -537.64529144843664   -4.54747e-13   1.47250e-09 DIIS
   @DF-RHF iter  16:  -537.64529144843641    2.27374e-13   6.16689e-10 DIIS
   @DF-RHF iter  17:  -537.64529144843664   -2.27374e-13   2.65119e-10 DIIS
   @DF-RHF iter  18:  -537.64529144843800   -1.36424e-12   1.15761e-10 DIIS
   @DF-RHF iter  19:  -537.64529144843732    6.82121e-13   5.58496e-11 DIIS
  Energy and wave function converged.


  ==> Post-Iterations <==

    Orbital Energies [Eh]
    ---------------------

    Doubly Occupied:                                                      

       1A    -20.691999     2A    -11.491947     3A    -11.463608  
       4A    -11.439713     5A    -11.429361     6A    -11.394865  
       7A    -11.389747     8A    -11.383453     9A    -11.380378  
      10A    -11.378242    11A    -11.376444    12A    -11.362885  
      13A    -11.359829    14A     -1.506048    15A     -1.406942  
      16A     -1.274240    17A     -1.249001    18A     -1.170096  
      19A     -1.148268    20A     -1.141271    21A     -1.105030  
      22A     -0.975986    23A     -0.968079    24A     -0.960642  
      25A     -0.917835    26A     -0.878557    27A     -0.856017  
      28A     -0.841229    29A     -0.795181    30A     -0.778322  
      31A     -0.760525    32A     -0.750575    33A     -0.736132  
      34A     -0.711256    35A     -0.699058    36A     -0.689571  
      37A     -0.678556    38A     -0.667470    39A     -0.655105  
      40A     -0.639621    41A     -0.628696    42A     -0.624998  
      43A     -0.612881    44A     -0.599521    45A     -0.578255  
      46A     -0.463383    47A     -0.432543  

    Virtual:                                                              

      48A     -0.071129    49A     -0.025999    50A     -0.000606  
      51A      0.012630    52A      0.026143    53A      0.049751  
      54A      0.074225    55A      0.074927    56A      0.089726  
      57A      0.092123    58A      0.108026    59A      0.115168  
      60A      0.120823    61A      0.132749    62A      0.144414  
      63A      0.147081    64A      0.161460    65A      0.178529  
      66A      0.189886    67A      0.216355    68A      0.218057  
      69A      0.232462    70A      0.256402    71A      0.261149  
      72A      0.302886    73A      0.310341    74A      0.332438  
      75A      0.343912    76A      0.355668    77A      0.371111  
      78A      0.374108    79A      0.414656    80A      0.453785  
      81A      0.466007    82A      0.480882    83A      0.496446  
      84A      0.519363    85A      0.520082    86A      0.525774  
      87A      0.536064    88A      0.541292    89A      0.563437  
      90A      0.576306    91A      0.577985    92A      0.590860  
      93A      0.598821    94A      0.603199    95A      0.608204  
      96A      0.617815    97A      0.634583    98A      0.637766  
      99A      0.659237   100A      0.667803   101A      0.678068  
     102A      0.689069   103A      0.692507   104A      0.695992  
     105A      0.705627   106A      0.711961   107A      0.715000  
     108A      0.717202   109A      0.739776   110A      0.746447  
     111A      0.753175   112A      0.754972   113A      0.759603  
     114A      0.767864   115A      0.772420   116A      0.783875  
     117A      0.791020   118A      0.801394   119A      0.803703  
     120A      0.826279   121A      0.830697   122A      0.845124  
     123A      0.870631   124A      0.886297   125A      0.903617  
     126A      0.968917   127A      0.988406   128A      1.007589  
     129A      1.018133   130A      1.032753   131A      1.041907  
     132A      1.049145   133A      1.087722   134A      1.104706  
     135A      1.112522   136A      1.131231   137A      1.145884  
     138A      1.169193   139A      1.175422   140A      1.182048  
     141A      1.189189   142A      1.203138   143A      1.235900  
     144A      1.240807   145A      1.265240   146A      1.266359  
     147A      1.285940   148A      1.307013   149A      1.315093  
     150A      1.331457   151A      1.356972   152A      1.376811  
     153A      1.397012   154A      1.437993   155A      1.450417  
     156A      1.481829   157A      1.490627   158A      1.507743  
     159A      1.511833   160A      1.530089   161A      1.551833  
     162A      1.579625   163A      1.589445   164A      1.610148  
     165A      1.630181   166A      1.635359   167A      1.657428  
     168A      1.663205   169A      1.674809   170A      1.689978  
     171A      1.698594   172A      1.708238   173A      1.739477  
     174A      1.742489   175A      1.756196   176A      1.763636  
     177A      1.773645   178A      1.781267   179A      1.788781  
     180A      1.793752   181A      1.803590   182A      1.809173  
     183A      1.819719   184A      1.829129   185A      1.841967  
     186A      1.843963   187A      1.854832   188A      1.865098  
     189A      1.877456   190A      1.883409   191A      1.893900  
     192A      1.901260   193A      1.927438   194A      1.936915  
     195A      1.941184   196A      1.951352   197A      1.956198  
     198A      1.976507   199A      1.987952   200A      2.001104  
     201A      2.016866   202A      2.034573   203A      2.057328  
     204A      2.083951   205A      2.088866   206A      2.104530  
     207A      2.112214   208A      2.125526   209A      2.130177  
     210A      2.152613   211A      2.168088   212A      2.189487  
     213A      2.200677   214A      2.228515   215A      2.238157  
     216A      2.241434   217A      2.267131   218A      2.283387  
     219A      2.291058   220A      2.298345   221A      2.315280  
     222A      2.335899   223A      2.367714   224A      2.379223  
     225A      2.412095   226A      2.424117   227A      2.439561  
     228A      2.451831   229A      2.514081   230A      2.517600  
     231A      2.554224   232A      2.568063   233A      2.600775  
     234A      2.612928   235A      2.621105   236A      2.629933  
     237A      2.642466   238A      2.649405   239A      2.702304  
     240A      2.713092   241A      2.755061   242A      2.789789  
     243A      2.816504   244A      2.838158   245A      2.861254  
     246A      2.905110   247A      2.928065   248A      2.976733  
     249A      3.051538   250A      3.111251   251A      3.116453  
     252A      3.149050   253A      3.232960   254A      3.441513  
     255A      3.549144   256A      3.804980   257A      4.089089  

    Final Occupation by Irrep:
              A 
    DOCC [    47 ]

  @DF-RHF Final Energy:  -537.64529144843732

   => Energetics <=

    Nuclear Repulsion Energy =            775.6948440380876946
    One-Electron Energy =               -2253.7935505812183692
    Two-Electron Energy =                 940.4534150946933551
    Total Energy =                       -537.6452914484373196

Computation Completed


Properties will be evaluated at   0.000000,   0.000000,   0.000000 [a0]

Properties computed using the SCF density matrix

  Nuclear Dipole Moment: [e a0]
     X:    13.0854      Y:     4.3079      Z:    -4.5070

  Electronic Dipole Moment: [e a0]
     X:   -10.7627      Y:    -2.8606      Z:     1.6856

  Dipole Moment: [e a0]
     X:     2.3227      Y:     1.4474      Z:    -2.8214     Total:     3.9306

  Dipole Moment: [D]
     X:     5.9038      Y:     3.6788      Z:    -7.1712     Total:     9.9907


*** tstop() called on skylm005.palmetto.clemson.edu at Sun Feb 20 09:11:28 2022
Module time:
	user time   =      12.28 seconds =       0.20 minutes
	system time =       0.72 seconds =       0.01 minutes
	total time  =         16 seconds =       0.27 minutes
Total time:
	user time   =   92253.31 seconds =    1537.56 minutes
	system time =   27045.50 seconds =     450.76 minutes
	total time  =     206333 seconds =    3438.88 minutes
 MINTS: Wrapper to libmints.
   by Justin Turney

   Calculation information:
      Number of threads:                 1
      Number of atoms:                  28
      Number of AO shells:             123
      Number of SO shells:             123
      Number of primitives:            361
      Number of atomic orbitals:       270
      Number of basis functions:       257

      Number of irreps:                  1
      Integral cutoff                 1.00e-12
      Number of functions per irrep: [ 257 ]

 OEINTS: Overlap, kinetic, potential, dipole, and quadrupole integrals
         stored in file 35.

      Computing two-electron integrals...done
      Computed 343703367 non-zero two-electron integrals.
        Stored in file 33.


*** tstart() called on skylm005.palmetto.clemson.edu
*** at Sun Feb 20 09:17:00 2022


	Wfn Parameters:
	--------------------
	Wavefunction         = CCSD
	Number of irreps     = 1
	Number of MOs        = 257
	Number of active MOs = 257
	AO-Basis             = NONE
	Semicanonical        = false
	Reference            = RHF
	Print Level          = 1

	IRREP	# MOs	# FZDC	# DOCC	# SOCC	# VIRT	# FZVR
	-----	-----	------	------	------	------	------
	 A	   257	    0	    47	    0	    210	    0
	Transforming integrals...
	IWL integrals will be deleted.
	(OO|OO)...
	Presorting SO-basis two-electron integrals.
	Sorting File: SO Ints (nn|nn) nbuckets = 1
	Constructing frozen core operators
	Starting first half-transformation.
	Sorting half-transformed integrals.
	First half integral transformation complete.
	Starting second half-transformation.
	Two-electron integral transformation complete.
	(OO|OV)...
	Starting second half-transformation.
	Two-electron integral transformation complete.
	(OO|VV)...
	Starting second half-transformation.
	Two-electron integral transformation complete.
	(OV|OO)...
	Starting first half-transformation.
	Sorting half-transformed integrals.
	First half integral transformation complete.
	Starting second half-transformation.
	Two-electron integral transformation complete.
	(OV|OV)...
	Starting second half-transformation.
	Two-electron integral transformation complete.
	(OV|VV)...
	Starting second half-transformation.
	Two-electron integral transformation complete.
	(VV|OO)...
	Starting first half-transformation.
	Sorting half-transformed integrals.
	First half integral transformation complete.
	Starting second half-transformation.
	Two-electron integral transformation complete.
	(VV|OV)...
	Starting second half-transformation.
	Two-electron integral transformation complete.
	(VV|VV)...
	Starting second half-transformation.
	Two-electron integral transformation complete.
	Frozen core energy     =      0.00000000000000

	Size of irrep 0 of <ab|cd> integrals:   1944.810 (MW) /  15558.480 (MB)
	Total:                                  1944.810 (MW) /  15558.480 (MB)

	Size of irrep 0 of <ia|bc> integrals:    435.267 (MW) /   3482.136 (MB)
	Total:                                   435.267 (MW) /   3482.136 (MB)

	Size of irrep 0 of tijab amplitudes:      97.417 (MW) /    779.335 (MB)
	Total:                                    97.417 (MW) /    779.335 (MB)

	Nuclear Rep. energy          =    775.69484403808769
	SCF energy                   =   -537.64529144843732
	One-electron energy          =  -2253.79355061250726
	Two-electron energy          =    940.45269604420048
	Reference energy             =   -537.64601053021920

*** tstop() called on skylm005.palmetto.clemson.edu at Sun Feb 20 09:28:05 2022
Module time:
	user time   =     187.72 seconds =       3.13 minutes
	system time =     108.99 seconds =       1.82 minutes
	total time  =        665 seconds =      11.08 minutes
Total time:
	user time   =   92596.09 seconds =    1543.27 minutes
	system time =   27167.70 seconds =     452.80 minutes
	total time  =     207330 seconds =    3455.50 minutes
            **************************
            *                        *
            *        CCENERGY        *
            *                        *
            **************************

    Nuclear Rep. energy (wfn)     =  775.694844038087695
    SCF energy          (wfn)     = -537.645291448437320
    Reference energy    (file100) = -537.646010530219201

    Input parameters:
    -----------------
    Wave function   =     CCSD
    Reference wfn   =     RHF
    Brueckner       =     No
    Memory (Mbytes) =     62000.0
    Maxiter         =     50
    R_Convergence   =     1.0e-07
    E_Convergence   =     1.0e-08
    Restart         =     Yes
    DIIS            =     Yes
    AO Basis        =     NONE
    ABCD            =     NEW
    Cache Level     =     2
    Cache Type      =     LOW
    Print Level     =     1
    Num. of threads =     1
    # Amps to Print =     10
    Print MP2 Amps? =     No
    Analyze T2 Amps =     No
    Print Pair Ener =     No
    Local CC        =     No
    SCS-MP2         =     False
    SCSN-MP2        =     False
    SCS-CCSD        =     False

MP2 correlation energy -1.8418534409906948
                Solving CC Amplitude Equations
                ------------------------------
  Iter             Energy              RMS        T1Diag      D1Diag    New D1Diag    D2Diag
  ----     ---------------------    ---------   ----------  ----------  ----------   --------
     0        -1.841853440990695    0.000e+00    0.000000    0.000000    0.000000    0.177708
     1        -1.865520338768652    1.298e-01    0.007490    0.030223    0.030223    0.166256
     2        -1.914085796241026    4.513e-02    0.007534    0.027523    0.027523    0.179263
     3        -1.925534277131610    1.974e-02    0.008738    0.036734    0.036734    0.182966
     4        -1.925636553400202    6.131e-03    0.008899    0.037411    0.037411    0.184489
     5        -1.925713187230895    3.007e-03    0.009013    0.039138    0.039138    0.185580
     6        -1.925800578008954    8.504e-04    0.009049    0.039741    0.039741    0.185880
     7        -1.925777877879299    3.393e-04    0.009057    0.039940    0.039940    0.185928
     8        -1.925767634865931    1.372e-04    0.009061    0.040032    0.040032    0.185937
     9        -1.925769745710542    6.763e-05    0.009063    0.040076    0.040076    0.185938
    10        -1.925769734609980    3.324e-05    0.009065    0.040100    0.040100    0.185933
    11        -1.925768254540383    1.512e-05    0.009065    0.040111    0.040111    0.185931
    12        -1.925768026888028    7.034e-06    0.009065    0.040116    0.040116    0.185930
    13        -1.925767705699534    2.740e-06    0.009065    0.040115    0.040115    0.185929
    14        -1.925767595384266    1.358e-06    0.009065    0.040115    0.040115    0.185929
    15        -1.925767563415960    5.556e-07    0.009065    0.040115    0.040115    0.185929
    16        -1.925767551835825    2.792e-07    0.009065    0.040115    0.040115    0.185929
