
    -----------------------------------------------------------------------
          Psi4: An Open-Source Ab Initio Electronic Structure Package
                               Psi4 1.4 release

                         Git: Rev {HEAD} 9485035 


    D. G. A. Smith, L. A. Burns, A. C. Simmonett, R. M. Parrish,
    M. C. Schieber, R. Galvelis, P. Kraus, H. Kruse, R. Di Remigio,
    A. Alenaizan, A. M. James, S. Lehtola, J. P. Misiewicz, M. Scheurer,
    R. A. Shaw, J. B. Schriber, Y. Xie, Z. L. Glick, D. A. Sirianni,
    J. S. O'Brien, J. M. Waldrop, A. Kumar, E. G. Hohenstein,
    B. P. Pritchard, B. R. Brooks, H. F. Schaefer III, A. Yu. Sokolov,
    K. Patkowski, A. E. DePrince III, U. Bozkaya, R. A. King,
    F. A. Evangelista, J. M. Turney, T. D. Crawford, C. D. Sherrill,
    J. Chem. Phys. 152(18) 184108 (2020). https://doi.org/10.1063/5.0006002

                            Additional Code Authors
    E. T. Seidl, C. L. Janssen, E. F. Valeev, M. L. Leininger,
    J. F. Gonthier, R. M. Richard, H. R. McAlexander, M. Saitow, X. Wang,
    P. Verma, and M. H. Lechner

             Previous Authors, Complete List of Code Contributors,
                       and Citations for Specific Modules
    https://github.com/psi4/psi4/blob/master/codemeta.json
    https://github.com/psi4/psi4/graphs/contributors
    http://psicode.org/psi4manual/master/introduction.html#citing-psifour

    -----------------------------------------------------------------------


    Psi4 started on: Saturday, 11 December 2021 05:47PM

    Process ID: 413217
    Host:       skystd27.palmetto.clemson.edu
    PSIDATADIR: /home/maxbuskirk/.conda/envs/psifour/share/psi4
    Memory:     500.0 MiB
    Threads:    1
    
  ==> Input File <==

--------------------------------------------------------------------------
molecule mol {
0 1
C    0.00000000  0.00000000  0.00000000
C   -0.60596800 -1.22643900 -0.66495400
C   -2.02709400 -1.58300900 -0.50745700
C   -2.43823800 -2.92802500 -0.36687600
C   -3.79420800 -3.25362700 -0.21147700
C   -4.76604600 -2.24026400 -0.18223100
C   -4.36957100 -0.89748300 -0.29927000
C   -3.01413900 -0.57254200 -0.45292200
H   -2.71536900  0.47628700 -0.54544000
H   -5.11880500 -0.10042600 -0.26858100
H   -5.82299500 -2.49372900 -0.05807200
H   -4.09109700 -4.30103800 -0.09961600
H   -1.68164800 -3.71784500 -0.34781900
C    0.31906000 -1.84881900 -1.45135500
C    1.65382000 -1.13497300 -1.36532200
C    1.51129000 -0.28096600 -0.09259300
H    1.81230500 -0.88683600  0.77854100
H    2.12735300  0.63188600 -0.10372600
H    2.50985700 -1.83129300 -1.32897500
H    1.79496400 -0.50247100 -2.26494400
C    0.12013800 -2.99314900 -2.39942300
H   -0.94431100 -3.22404400 -2.55201200
H    0.56881600 -2.74955600 -3.37850200
H    0.62560000 -3.90646200 -2.03728700
H   -0.35400200  0.14438000  1.03432400
H   -0.26785300  0.91306400 -0.56714000
}

set scf_type df
set basis cc-pVTZ
set reference rhf

mol.update_geometry()
mol.symmetrize(1e-3)

e, wfn = optimize('mp2', return_wfn=True)
oeprop(wfn, "MULLIKEN_CHARGES")
mol.print_out()
print_variables()
--------------------------------------------------------------------------

Scratch directory: /local_scratch/pbs.4129852.pbs02/
gradient() will perform analytic gradient computation.

*** tstart() called on skystd27.palmetto.clemson.edu
*** at Sat Dec 11 17:47:44 2021

   => Loading Basis Set <=

    Name: CC-PVTZ
    Role: ORBITAL
    Keyword: BASIS
    atoms 1-8, 14-16, 21     entry C          line   186 file /home/maxbuskirk/.conda/envs/psifour/share/psi4/basis/cc-pvtz.gbs 
    atoms 9-13, 17-20, 22-26 entry H          line    23 file /home/maxbuskirk/.conda/envs/psifour/share/psi4/basis/cc-pvtz.gbs 


         ---------------------------------------------------------
                                   SCF
               by Justin Turney, Rob Parrish, Andy Simmonett
                          and Daniel G. A. Smith
                              RHF Reference
                        1 Threads,    500 MiB Core
         ---------------------------------------------------------

  ==> Geometry <==

    Molecular point group: c1
    Full point group: C1

    Geometry (in Angstrom), charge = 0, multiplicity = 1:

       Center              X                  Y                   Z               Mass       
    ------------   -----------------  -----------------  -----------------  -----------------
         C            1.395102899955     1.576301044008     0.681538013955    12.000000000000
         C            0.789134899955     0.349862044008     0.016584013955    12.000000000000
         C           -0.631991100045    -0.006707955992     0.174081013955    12.000000000000
         C           -1.043135100045    -1.351723955992     0.314662013955    12.000000000000
         C           -2.399105100045    -1.677325955992     0.470061013955    12.000000000000
         C           -3.370943100045    -0.663962955992     0.499307013955    12.000000000000
         C           -2.974468100045     0.678818044008     0.382268013955    12.000000000000
         C           -1.619036100045     1.003759044008     0.228616013955    12.000000000000
         H           -1.320266100045     2.052588044008     0.136098013955     1.007825032230
         H           -3.723702100045     1.475875044008     0.412957013955     1.007825032230
         H           -4.427892100045    -0.917427955992     0.623466013955     1.007825032230
         H           -2.695994100045    -2.724736955992     0.581922013955     1.007825032230
         H           -0.286545100045    -2.141543955992     0.333719013955     1.007825032230
         C            1.714162899955    -0.272517955992    -0.769816986045    12.000000000000
         C            3.048922899955     0.441328044008    -0.683783986045    12.000000000000
         C            2.906392899955     1.295335044008     0.588945013955    12.000000000000
         H            3.207407899955     0.689465044008     1.460079013955     1.007825032230
         H            3.522455899955     2.208187044008     0.577812013955     1.007825032230
         H            3.904959899955    -0.254991955992    -0.647436986045     1.007825032230
         H            3.190066899955     1.073830044008    -1.583405986045     1.007825032230
         C            1.515240899955    -1.416847955992    -1.717884986045    12.000000000000
         H            0.450791899955    -1.647742955992    -1.870473986045     1.007825032230
         H            1.963918899955    -1.173254955992    -2.696963986045     1.007825032230
         H            2.020702899955    -2.330160955992    -1.355748986045     1.007825032230
         H            1.041100899955     1.720681044008     1.715862013955     1.007825032230
         H            1.127249899955     2.489365044008     0.114398013955     1.007825032230

  Running in c1 symmetry.

  Rotational constants: A =      0.06659  B =      0.01987  C =      0.01651 [cm^-1]
  Rotational constants: A =   1996.26826  B =    595.59257  C =    495.10526 [MHz]
  Nuclear repulsion =  651.177106682362592

  Charge       = 0
  Multiplicity = 1
  Electrons    = 86
  Nalpha       = 43
  Nbeta        = 43

  ==> Algorithm <==

  SCF Algorithm Type is DF.
  DIIS enabled.
  MOM disabled.
  Fractional occupation disabled.
  Guess Type is SAD.
  Energy threshold   = 1.00e-10
  Density threshold  = 1.00e-10
  Integral threshold = 1.00e-12

  ==> Primary Basis <==

  Basis Set: CC-PVTZ
    Blend: CC-PVTZ
    Number of shells: 204
    Number of basis functions: 556
    Number of Cartesian functions: 630
    Spherical Harmonics?: true
    Max angular momentum: 3

   => Loading Basis Set <=

    Name: (CC-PVTZ AUX)
    Role: JKFIT
    Keyword: DF_BASIS_SCF
    atoms 1-8, 14-16, 21     entry C          line   125 file /home/maxbuskirk/.conda/envs/psifour/share/psi4/basis/cc-pvtz-jkfit.gbs 
    atoms 9-13, 17-20, 22-26 entry H          line    51 file /home/maxbuskirk/.conda/envs/psifour/share/psi4/basis/cc-pvtz-jkfit.gbs 

  ==> Integral Setup <==

  ==> DiskDFJK: Density-Fitted J/K Matrices <==

    J tasked:                  Yes
    K tasked:                  Yes
    wK tasked:                  No
    OpenMP threads:              1
    Integrals threads:           1
    Memory [MiB]:              375
    Algorithm:                Disk
    Integral Cache:           NONE
    Schwarz Cutoff:          1E-12
    Fitting Condition:       1E-10

   => Auxiliary Basis Set <=

  Basis Set: (CC-PVTZ AUX)
    Blend: CC-PVTZ-JKFIT
    Number of shells: 440
    Number of basis functions: 1368
    Number of Cartesian functions: 1642
    Spherical Harmonics?: true
    Max angular momentum: 4

  Minimum eigenvalue in the overlap matrix is 3.2387911993E-05.
  Reciprocal condition number of the overlap matrix is 3.6325533516E-06.
    Using symmetric orthogonalization.

  ==> Pre-Iterations <==

  SCF Guess: Superposition of Atomic Densities via on-the-fly atomic UHF (no occupation information).

   -------------------------
    Irrep   Nso     Nmo    
   -------------------------
     A        556     556 
   -------------------------
    Total     556     556
   -------------------------

  ==> Iterations <==

                           Total Energy        Delta E     RMS |[F,P]|

   @DF-RHF iter SAD:  -462.26262504216368   -4.62263e+02   0.00000e+00 
   @DF-RHF iter   1:  -462.38845240224225   -1.25827e-01   1.24202e-03 DIIS
   @DF-RHF iter   2:  -462.65271412257471   -2.64262e-01   5.58412e-04 DIIS
   @DF-RHF iter   3:  -462.70397063698533   -5.12565e-02   1.25244e-04 DIIS
   @DF-RHF iter   4:  -462.70826453175960   -4.29389e-03   3.62684e-05 DIIS
   @DF-RHF iter   5:  -462.70853149445401   -2.66963e-04   1.19530e-05 DIIS
   @DF-RHF iter   6:  -462.70856276948717   -3.12750e-05   3.79526e-06 DIIS
   @DF-RHF iter   7:  -462.70856607311953   -3.30363e-06   9.87769e-07 DIIS
   @DF-RHF iter   8:  -462.70856645886437   -3.85745e-07   4.18166e-07 DIIS
   @DF-RHF iter   9:  -462.70856653601589   -7.71515e-08   1.65640e-07 DIIS
   @DF-RHF iter  10:  -462.70856655505293   -1.90370e-08   8.21551e-08 DIIS
   @DF-RHF iter  11:  -462.70856655954071   -4.48779e-09   2.90081e-08 DIIS
   @DF-RHF iter  12:  -462.70856655999921   -4.58499e-10   1.47645e-08 DIIS
   @DF-RHF iter  13:  -462.70856656013495   -1.35742e-10   5.68566e-09 DIIS
   @DF-RHF iter  14:  -462.70856656016645   -3.14913e-11   2.41245e-09 DIIS
   @DF-RHF iter  15:  -462.70856656016883   -2.38742e-12   1.10151e-09 DIIS
   @DF-RHF iter  16:  -462.70856656017054   -1.70530e-12   3.42241e-10 DIIS
   @DF-RHF iter  17:  -462.70856656017293   -2.38742e-12   1.16048e-10 DIIS
   @DF-RHF iter  18:  -462.70856656017139    1.53477e-12   4.40818e-11 DIIS
  Energy and wave function converged.


  ==> Post-Iterations <==

    Orbital Energies [Eh]
    ---------------------

    Doubly Occupied:                                                      

       1A    -11.243187     2A    -11.236352     3A    -11.236089  
       4A    -11.233682     5A    -11.233280     6A    -11.232992  
       7A    -11.231793     8A    -11.225634     9A    -11.223849  
      10A    -11.223430    11A    -11.222477    12A    -11.221080  
      13A     -1.155291    14A     -1.125527    15A     -1.026871  
      16A     -1.010966    17A     -1.001268    18A     -0.941699  
      19A     -0.899053    20A     -0.822237    21A     -0.817642  
      22A     -0.777927    23A     -0.714646    24A     -0.666001  
      25A     -0.641246    26A     -0.637855    27A     -0.618107  
      28A     -0.608933    29A     -0.580395    30A     -0.568211  
      31A     -0.565232    32A     -0.541380    33A     -0.533035  
      34A     -0.506216    35A     -0.497310    36A     -0.488379  
      37A     -0.477247    38A     -0.476603    39A     -0.466765  
      40A     -0.460407    41A     -0.361929    42A     -0.331599  
      43A     -0.290718  

    Virtual:                                                              

      44A      0.109599    45A      0.126325    46A      0.136086  
      47A      0.151695    48A      0.157734    49A      0.172037  
      50A      0.178893    51A      0.181036    52A      0.188347  
      53A      0.204741    54A      0.208970    55A      0.219312  
      56A      0.226964    57A      0.236224    58A      0.241009  
      59A      0.247575    60A      0.265879    61A      0.300579  
      62A      0.308303    63A      0.329352    64A      0.335199  
      65A      0.352002    66A      0.356476    67A      0.363722  
      68A      0.370433    69A      0.388685    70A      0.390803  
      71A      0.412882    72A      0.422497    73A      0.430352  
      74A      0.443314    75A      0.449880    76A      0.456858  
      77A      0.470966    78A      0.477047    79A      0.486767  
      80A      0.498354    81A      0.505074    82A      0.511206  
      83A      0.523794    84A      0.527674    85A      0.553007  
      86A      0.556746    87A      0.563827    88A      0.566212  
      89A      0.573221    90A      0.580508    91A      0.587764  
      92A      0.592804    93A      0.600039    94A      0.604026  
      95A      0.605410    96A      0.611186    97A      0.622144  
      98A      0.625467    99A      0.629668   100A      0.635629  
     101A      0.641977   102A      0.651877   103A      0.653477  
     104A      0.662949   105A      0.665016   106A      0.671100  
     107A      0.674527   108A      0.682319   109A      0.686458  
     110A      0.695050   111A      0.701822   112A      0.716894  
     113A      0.725545   114A      0.729207   115A      0.731722  
     116A      0.739458   117A      0.756145   118A      0.762925  
     119A      0.772020   120A      0.778711   121A      0.800624  
     122A      0.824510   123A      0.839284   124A      0.845125  
     125A      0.870267   126A      0.881944   127A      0.900043  
     128A      0.904296   129A      0.910730   130A      0.928795  
     131A      0.932909   132A      0.944959   133A      0.958802  
     134A      0.974921   135A      0.984045   136A      0.994938  
     137A      1.008569   138A      1.009948   139A      1.021947  
     140A      1.025830   141A      1.035847   142A      1.059910  
     143A      1.065496   144A      1.071617   145A      1.081242  
     146A      1.097311   147A      1.100688   148A      1.110093  
     149A      1.138452   150A      1.142282   151A      1.159597  
     152A      1.172253   153A      1.176769   154A      1.186712  
     155A      1.190751   156A      1.198777   157A      1.210890  
     158A      1.217731   159A      1.229504   160A      1.237237  
     161A      1.247695   162A      1.253285   163A      1.270832  
     164A      1.282283   165A      1.286440   166A      1.292998  
     167A      1.297902   168A      1.309123   169A      1.327781  
     170A      1.335024   171A      1.355479   172A      1.357563  
     173A      1.369924   174A      1.382027   175A      1.383224  
     176A      1.398319   177A      1.401723   178A      1.414526  
     179A      1.416708   180A      1.421906   181A      1.449267  
     182A      1.453388   183A      1.456034   184A      1.465715  
     185A      1.471149   186A      1.481061   187A      1.495830  
     188A      1.510324   189A      1.513206   190A      1.520801  
     191A      1.529413   192A      1.532697   193A      1.537988  
     194A      1.554012   195A      1.559765   196A      1.561317  
     197A      1.574929   198A      1.584362   199A      1.593665  
     200A      1.607426   201A      1.617910   202A      1.623193  
     203A      1.628852   204A      1.637135   205A      1.642727  
     206A      1.658004   207A      1.671811   208A      1.681607  
     209A      1.686319   210A      1.701603   211A      1.711933  
     212A      1.725118   213A      1.740803   214A      1.743238  
     215A      1.752718   216A      1.765543   217A      1.780815  
     218A      1.796700   219A      1.808457   220A      1.813098  
     221A      1.832698   222A      1.841177   223A      1.859005  
     224A      1.908256   225A      1.941899   226A      1.967796  
     227A      1.970975   228A      1.986218   229A      2.021293  
     230A      2.072877   231A      2.122173   232A      2.187123  
     233A      2.194811   234A      2.219805   235A      2.256525  
     236A      2.325826   237A      2.350786   238A      2.387760  
     239A      2.414551   240A      2.449256   241A      2.461883  
     242A      2.474158   243A      2.508542   244A      2.520928  
     245A      2.539549   246A      2.570294   247A      2.595562  
     248A      2.618304   249A      2.629641   250A      2.644337  
     251A      2.658981   252A      2.667794   253A      2.691873  
     254A      2.702299   255A      2.738450   256A      2.743830  
     257A      2.756897   258A      2.771251   259A      2.784152  
     260A      2.793706   261A      2.804213   262A      2.810159  
     263A      2.821449   264A      2.828990   265A      2.839067  
     266A      2.843136   267A      2.851667   268A      2.863414  
     269A      2.871161   270A      2.880989   271A      2.892453  
     272A      2.898917   273A      2.914384   274A      2.924617  
     275A      2.948531   276A      2.951284   277A      2.956160  
     278A      2.967712   279A      2.971252   280A      2.977289  
     281A      3.002104   282A      3.004779   283A      3.015918  
     284A      3.018930   285A      3.032531   286A      3.052392  
     287A      3.055085   288A      3.064970   289A      3.073722  
     290A      3.081932   291A      3.083287   292A      3.098401  
     293A      3.115842   294A      3.127706   295A      3.136288  
     296A      3.142100   297A      3.166112   298A      3.173401  
     299A      3.176348   300A      3.179873   301A      3.214550  
     302A      3.222156   303A      3.236917   304A      3.241608  
     305A      3.254676   306A      3.261774   307A      3.272898  
     308A      3.278316   309A      3.290056   310A      3.300919  
     311A      3.308914   312A      3.320932   313A      3.327666  
     314A      3.333866   315A      3.341563   316A      3.347249  
     317A      3.351907   318A      3.359236   319A      3.377453  
     320A      3.379381   321A      3.383746   322A      3.386886  
     323A      3.396494   324A      3.396865   325A      3.404813  
     326A      3.417226   327A      3.420343   328A      3.424736  
     329A      3.428249   330A      3.441287   331A      3.450592  
     332A      3.452271   333A      3.460949   334A      3.466526  
     335A      3.481388   336A      3.494237   337A      3.504426  
     338A      3.507479   339A      3.515246   340A      3.525037  
     341A      3.533264   342A      3.544344   343A      3.550165  
     344A      3.557868   345A      3.566323   346A      3.578630  
     347A      3.589802   348A      3.613454   349A      3.621505  
     350A      3.626854   351A      3.639081   352A      3.650409  
     353A      3.654649   354A      3.659059   355A      3.666904  
     356A      3.675580   357A      3.678021   358A      3.687746  
     359A      3.703829   360A      3.718199   361A      3.722767  
     362A      3.732865   363A      3.740417   364A      3.743477  
     365A      3.750485   366A      3.754579   367A      3.770689  
     368A      3.788107   369A      3.801792   370A      3.803149  
     371A      3.812677   372A      3.825374   373A      3.839794  
     374A      3.848545   375A      3.856588   376A      3.861690  
     377A      3.883038   378A      3.906292   379A      3.926773  
     380A      3.936795   381A      3.952731   382A      3.965657  
     383A      3.972805   384A      3.981095   385A      3.992644  
     386A      3.997330   387A      4.008289   388A      4.013810  
     389A      4.028481   390A      4.034054   391A      4.041330  
     392A      4.063752   393A      4.071156   394A      4.074365  
     395A      4.088005   396A      4.095690   397A      4.107614  
     398A      4.109632   399A      4.115467   400A      4.126963  
     401A      4.140914   402A      4.146432   403A      4.150719  
     404A      4.162107   405A      4.166995   406A      4.174258  
     407A      4.185721   408A      4.190677   409A      4.201428  
     410A      4.218423   411A      4.229146   412A      4.237178  
     413A      4.250787   414A      4.260720   415A      4.270520  
     416A      4.283292   417A      4.293862   418A      4.312746  
     419A      4.319912   420A      4.326238   421A      4.331368  
     422A      4.346843   423A      4.361190   424A      4.361845  
     425A      4.376766   426A      4.391916   427A      4.401922  
     428A      4.406455   429A      4.425364   430A      4.435874  
     431A      4.442348   432A      4.454292   433A      4.457269  
     434A      4.470245   435A      4.479113   436A      4.483270  
     437A      4.500096   438A      4.503696   439A      4.519514  
     440A      4.532716   441A      4.543267   442A      4.546166  
     443A      4.562912   444A      4.569466   445A      4.581469  
     446A      4.583337   447A      4.593289   448A      4.610494  
     449A      4.621871   450A      4.630353   451A      4.637479  
     452A      4.647368   453A      4.663686   454A      4.666048  
     455A      4.681192   456A      4.683056   457A      4.699151  
     458A      4.702689   459A      4.715879   460A      4.736096  
     461A      4.760645   462A      4.762114   463A      4.778525  
     464A      4.793783   465A      4.811428   466A      4.838904  
     467A      4.851921   468A      4.860252   469A      4.890694  
     470A      4.909857   471A      4.951000   472A      4.970775  
     473A      4.997421   474A      5.008287   475A      5.017875  
     476A      5.026390   477A      5.043443   478A      5.052448  
     479A      5.082671   480A      5.085862   481A      5.092425  
     482A      5.113416   483A      5.132891   484A      5.144264  
     485A      5.165242   486A      5.175172   487A      5.194808  
     488A      5.218148   489A      5.231701   490A      5.245047  
     491A      5.270165   492A      5.280808   493A      5.291707  
     494A      5.298182   495A      5.314159   496A      5.326229  
     497A      5.334869   498A      5.342495   499A      5.354411  
     500A      5.376027   501A      5.397464   502A      5.406388  
     503A      5.426439   504A      5.445576   505A      5.457202  
     506A      5.477397   507A      5.487509   508A      5.510285  
     509A      5.539898   510A      5.583795   511A      5.590979  
     512A      5.597392   513A      5.620369   514A      5.627045  
     515A      5.643882   516A      5.661746   517A      5.685133  
     518A      5.692817   519A      5.707278   520A      5.724185  
     521A      5.757975   522A      5.794547   523A      5.819869  
     524A      5.848368   525A      5.867239   526A      5.903628  
     527A      5.920931   528A      5.999716   529A      6.032987  
     530A      6.047695   531A      6.100065   532A      6.137650  
     533A      6.232022   534A      6.269030   535A      6.291402  
     536A      6.312729   537A      6.329192   538A      6.380158  
     539A      6.411641   540A      6.430559   541A      6.446507  
     542A      6.484967   543A      6.766586   544A      7.173201  
     545A      9.486279   546A     10.264808   547A     12.535491  
     548A     12.837585   549A     13.095822   550A     13.234442  
     551A     13.463611   552A     13.585606   553A     13.865866  
     554A     14.402333   555A     14.674595   556A     15.873031  

    Final Occupation by Irrep:
              A 
    DOCC [    43 ]

  @DF-RHF Final Energy:  -462.70856656017139

   => Energetics <=

    Nuclear Repulsion Energy =            651.1771066823625915
    One-Electron Energy =               -1917.0222661796406101
    Two-Electron Energy =                 803.1365929371065704
    Total Energy =                       -462.7085665601714481

Computation Completed


Properties will be evaluated at   0.000000,   0.000000,   0.000000 [a0]

Properties computed using the SCF density matrix

  Nuclear Dipole Moment: [e a0]
     X:     7.4756      Y:     0.4876      Z:    -2.0603

  Electronic Dipole Moment: [e a0]
     X:    -7.3234      Y:    -0.4993      Z:     1.9639

  Dipole Moment: [e a0]
     X:     0.1522      Y:    -0.0117      Z:    -0.0964     Total:     0.1805

  Dipole Moment: [D]
     X:     0.3869      Y:    -0.0298      Z:    -0.2449     Total:     0.4589


*** tstop() called on skystd27.palmetto.clemson.edu at Sat Dec 11 17:49:38 2021
Module time:
	user time   =     104.22 seconds =       1.74 minutes
	system time =       9.36 seconds =       0.16 minutes
	total time  =        114 seconds =       1.90 minutes
Total time:
	user time   =     104.22 seconds =       1.74 minutes
	system time =       9.36 seconds =       0.16 minutes
	total time  =        114 seconds =       1.90 minutes

*** tstart() called on skystd27.palmetto.clemson.edu
*** at Sat Dec 11 17:49:38 2021


  //>>>>>>>>>>>>>>>>>>>>>>>>>>>>>>>>>>>//
  //               DFMP2               //
  //<<<<<<<<<<<<<<<<<<<<<<<<<<<<<<<<<<<//

   => Loading Basis Set <=

    Name: (CC-PVTZ AUX)
    Role: RIFIT
    Keyword: DF_BASIS_MP2
    atoms 1-8, 14-16, 21     entry C          line   209 file /home/maxbuskirk/.conda/envs/psifour/share/psi4/basis/cc-pvtz-ri.gbs 
    atoms 9-13, 17-20, 22-26 entry H          line    19 file /home/maxbuskirk/.conda/envs/psifour/share/psi4/basis/cc-pvtz-ri.gbs 

	 --------------------------------------------------------
	                          DF-MP2                         
	      2nd-Order Density-Fitted Moller-Plesset Theory     
	              RMP2 Wavefunction,   1 Threads             
	                                                         
	        Rob Parrish, Justin Turney, Andy Simmonett,      
	           Ed Hohenstein, and C. David Sherrill          
	 --------------------------------------------------------

   => Auxiliary Basis Set <=

  Basis Set: (CC-PVTZ AUX)
    Blend: CC-PVTZ-RI
    Number of shells: 416
    Number of basis functions: 1392
    Number of Cartesian functions: 1702
    Spherical Harmonics?: true
    Max angular momentum: 4

	 --------------------------------------------------------
	                 NBF =   556, NAUX =  1392
	 --------------------------------------------------------
	   CLASS    FOCC     OCC    AOCC    AVIR     VIR    FVIR
	   PAIRS       0      43      43     513     513       0
	 --------------------------------------------------------


         ------------------------------------------------------------
                                     CPHF                           
                                  Rob Parrish                       
         ------------------------------------------------------------

  ==> Geometry <==

    Molecular point group: c1
    Full point group: C1

    Geometry (in Angstrom), charge = 0, multiplicity = 1:

       Center              X                  Y                   Z               Mass       
    ------------   -----------------  -----------------  -----------------  -----------------
         C            1.395102899955     1.576301044008     0.681538013955    12.000000000000
         C            0.789134899955     0.349862044008     0.016584013955    12.000000000000
         C           -0.631991100045    -0.006707955992     0.174081013955    12.000000000000
         C           -1.043135100045    -1.351723955992     0.314662013955    12.000000000000
         C           -2.399105100045    -1.677325955992     0.470061013955    12.000000000000
         C           -3.370943100045    -0.663962955992     0.499307013955    12.000000000000
         C           -2.974468100045     0.678818044008     0.382268013955    12.000000000000
         C           -1.619036100045     1.003759044008     0.228616013955    12.000000000000
         H           -1.320266100045     2.052588044008     0.136098013955     1.007825032230
         H           -3.723702100045     1.475875044008     0.412957013955     1.007825032230
         H           -4.427892100045    -0.917427955992     0.623466013955     1.007825032230
         H           -2.695994100045    -2.724736955992     0.581922013955     1.007825032230
         H           -0.286545100045    -2.141543955992     0.333719013955     1.007825032230
         C            1.714162899955    -0.272517955992    -0.769816986045    12.000000000000
         C            3.048922899955     0.441328044008    -0.683783986045    12.000000000000
         C            2.906392899955     1.295335044008     0.588945013955    12.000000000000
         H            3.207407899955     0.689465044008     1.460079013955     1.007825032230
         H            3.522455899955     2.208187044008     0.577812013955     1.007825032230
         H            3.904959899955    -0.254991955992    -0.647436986045     1.007825032230
         H            3.190066899955     1.073830044008    -1.583405986045     1.007825032230
         C            1.515240899955    -1.416847955992    -1.717884986045    12.000000000000
         H            0.450791899955    -1.647742955992    -1.870473986045     1.007825032230
         H            1.963918899955    -1.173254955992    -2.696963986045     1.007825032230
         H            2.020702899955    -2.330160955992    -1.355748986045     1.007825032230
         H            1.041100899955     1.720681044008     1.715862013955     1.007825032230
         H            1.127249899955     2.489365044008     0.114398013955     1.007825032230

  Nuclear repulsion =  651.177106682362592
  Reference energy  = -462.708566560171391

  ==> Basis Set <==

  Basis Set: CC-PVTZ
    Blend: CC-PVTZ
    Number of shells: 204
    Number of basis functions: 556
    Number of Cartesian functions: 630
    Spherical Harmonics?: true
    Max angular momentum: 3

  ==> CGRSolver (by Rob Parrish) <==

   Number of roots    =         1
   Preconditioning    =    JACOBI
   Convergence cutoff =     1E-06
   Maximum iterations =       100

  ==> CPHFRHamiltonian (by Rob Parrish) <== 

  ==> DiskDFJK: Density-Fitted J/K Matrices <==

    J tasked:                  Yes
    K tasked:                  Yes
    wK tasked:                  No
    OpenMP threads:              1
    Integrals threads:           1
    Memory [MiB]:              375
    Algorithm:                Disk
    Integral Cache:           NONE
    Schwarz Cutoff:          1E-12
    Fitting Condition:       1E-10

   => Auxiliary Basis Set <=

  Basis Set: (CC-PVTZ AUX)
    Blend: CC-PVTZ-JKFIT
    Number of shells: 440
    Number of basis functions: 1368
    Number of Cartesian functions: 1642
    Spherical Harmonics?: true
    Max angular momentum: 4

  ==> CPHF Iterations <==

  => Iterations <=

             Iter  Converged  Remaining    Residual
  CGR           1          0          1   7.801E-02
  CGR           2          0          1   1.507E-02
  CGR           3          0          1   5.454E-03
  CGR           4          0          1   2.744E-03
  CGR           5          0          1   1.407E-03
  CGR           6          0          1   6.818E-04
  CGR           7          0          1   2.356E-04
  CGR           8          0          1   7.690E-05
  CGR           9          0          1   2.875E-05
  CGR          10          0          1   1.072E-05
  CGR          11          0          1   4.905E-06
  CGR          12          0          1   1.401E-06
  CGR          13          1          0   5.436E-07

    CGRSolver converged.

  ==> DFCorrGrad: Density-Fitted Correlated Gradients <==

    OpenMP threads:              1
    Integrals threads:           1
    Memory [GiB]:            0.366
    Schwarz Cutoff:          0E+00
    Fitting Condition:       1E-10

   => Auxiliary Basis Set <=

  Basis Set: (CC-PVTZ AUX)
    Blend: CC-PVTZ-JKFIT
    Number of shells: 440
    Number of basis functions: 1368
    Number of Cartesian functions: 1642
    Spherical Harmonics?: true
    Max angular momentum: 4

	-----------------------------------------------------------
	 ==================> DF-MP2 Energies <==================== 
	-----------------------------------------------------------
	 Reference Energy          =    -462.7085665601713913 [Eh]
	 Singles Energy            =      -0.0000000000000000 [Eh]
	 Same-Spin Energy          =      -0.5104800206126551 [Eh]
	 Opposite-Spin Energy      =      -1.6316131998655230 [Eh]
	 Correlation Energy        =      -2.1420932204781780 [Eh]
	 Total Energy              =    -464.8506597806495506 [Eh]
	-----------------------------------------------------------
	 ================> DF-SCS-MP2 Energies <================== 
	-----------------------------------------------------------
	 SCS Same-Spin Scale       =       0.3333333333333333 [-]
	 SCS Opposite-Spin Scale   =       1.2000000000000000 [-]
	 SCS Same-Spin Energy      =      -0.1701600068708850 [Eh]
	 SCS Opposite-Spin Energy  =      -1.9579358398386275 [Eh]
	 SCS Correlation Energy    =      -2.1280958467095124 [Eh]
	 SCS Total Energy          =    -464.8366624068809188 [Eh]
	-----------------------------------------------------------


  -Total Gradient:
     Atom            X                  Y                   Z
    ------   -----------------  -----------------  -----------------
       1        0.003068638065    -0.001362766016    -0.000413299202
       2       -0.003428108622     0.005248725545     0.006589015537
       3        0.001571439057     0.000366023666    -0.001262950075
       4        0.002998624860    -0.003908193919    -0.000000929329
       5       -0.001497261761    -0.003241508774     0.000219156439
       6       -0.003670489651    -0.000894346719     0.000321527534
       7       -0.002792751013     0.002359010757     0.000167173732
       8        0.000835811342     0.004554560268    -0.000233650091
       9        0.002995291132     0.011058876689    -0.001093444601
      10       -0.008050908759     0.008595182249     0.000339962260
      11       -0.011632873385    -0.002799935597     0.001364129394
      12       -0.003178588566    -0.011313424448     0.001196771068
      13        0.007805049346    -0.008400518404     0.000482717905
      14        0.006172516601    -0.006012115995    -0.006270885697
      15       -0.000919783409     0.001674369798     0.002669359135
      16       -0.002365343553    -0.000710076551    -0.002475944984
      17        0.003042482939    -0.005532161058     0.008349755457
      18        0.006126728543     0.008822147101     0.000109545948
      19        0.008391820292    -0.006480486778     0.000017941585
      20        0.001596346620     0.005626398908    -0.008290556397
      21       -0.000003231552     0.000780688414     0.000922024404
      22       -0.009428698868    -0.002183023221    -0.001704179823
      23        0.003963633071     0.002030422814    -0.009000738387
      24        0.004508053781    -0.008431906688     0.003085565266
      25       -0.003591464306     0.001752139801     0.009911943780
      26       -0.002516932201     0.008401918168    -0.005000010859


*** tstop() called on skystd27.palmetto.clemson.edu at Sat Dec 11 17:57:11 2021
Module time:
	user time   =     436.61 seconds =       7.28 minutes
	system time =      13.72 seconds =       0.23 minutes
	total time  =        453 seconds =       7.55 minutes
Total time:
	user time   =     540.83 seconds =       9.01 minutes
	system time =      23.08 seconds =       0.38 minutes
	total time  =        567 seconds =       9.45 minutes

			-----------------------------------------
			 OPTKING 2.0: for geometry optimizations 
			  - R.A. King,  Bethel University        
			-----------------------------------------

	Internal coordinates to be generated automatically.
	Detected frag 1 with atoms:  1 2 3 4 5 6 7 8 9 10 11 12 13 14 15 16 17 18 19 20
	 21 22 23 24 25 26
	---Fragment 1 Bond Connectivity---
	 1 : 2 16 25 26
	 2 : 1 3 14
	 3 : 2 4 8
	 4 : 3 5 13
	 5 : 4 6 12
	 6 : 5 7 11
	 7 : 6 8 10
	 8 : 3 7 9
	 9 : 8
	 10 : 7
	 11 : 6
	 12 : 5
	 13 : 4
	 14 : 2 15 21
	 15 : 14 16 19 20
	 16 : 1 15 17 18
	 17 : 16
	 18 : 16
	 19 : 15
	 20 : 15
	 21 : 14 22 23 24
	 22 : 21
	 23 : 21
	 24 : 21
	 25 : 1
	 26 : 1

	---Fragment 1 Geometry and Gradient---
	 C           2.6363623977        2.9787772644        1.2879201905
	 C           1.4912488370        0.6611434449        0.0313392444
	 C          -1.1942900928       -0.0126761997        0.3289654400
	 C          -1.9712396509       -2.5543880740        0.5946250285
	 C          -4.5336515853       -3.1696866799        0.8882865786
	 C          -6.3701592436       -1.2547081443        0.9435535089
	 C          -5.6209300780        1.2827801922        0.7223818529
	 C          -3.0595348163        1.8968296891        0.4320216543
	 H          -2.4949413418        3.8788292516        0.2571879726
	 H          -7.0367771419        2.7889996286        0.7803756580
	 H          -8.3675033822       -1.7336875767        1.1781800149
	 H          -5.0946904849       -5.1490066107        1.0996732327
	 H          -0.5414917617       -4.0469315625        0.6306375392
	 C           3.2392984153       -0.5149843011       -1.4547432704
	 C           5.7616292586        0.8339891347       -1.2921644626
	 C           5.4922865939        2.4478284739        1.1129447793
	 H           6.0611225035        1.3029001063        2.7591494579
	 H           6.6564769399        4.1728687470        1.0919064584
	 H           7.3793047418       -0.4818649610       -1.2234785871
	 H           6.0283527628        2.0292446885       -2.9922036590
	 C           2.8633903150       -2.6774545982       -3.2463321387
	 H           0.8518732305       -3.1137829120       -3.5346835584
	 H           3.7112688535       -2.2171305422       -5.0965233038
	 H           3.8185750618       -4.4033660351       -2.5619942785
	 H           1.9673955699        3.2516159224        3.2425092755
	 H           2.1301935859        4.7042181595        0.2161809157
	             0.0030686381       -0.0013627660       -0.0004132992
	            -0.0034281086        0.0052487255        0.0065890155
	             0.0015714391        0.0003660237       -0.0012629501
	             0.0029986249       -0.0039081939       -0.0000009293
	            -0.0014972618       -0.0032415088        0.0002191564
	            -0.0036704897       -0.0008943467        0.0003215275
	            -0.0027927510        0.0023590108        0.0001671737
	             0.0008358113        0.0045545603       -0.0002336501
	             0.0029952911        0.0110588767       -0.0010934446
	            -0.0080509088        0.0085951822        0.0003399623
	            -0.0116328734       -0.0027999356        0.0013641294
	            -0.0031785886       -0.0113134244        0.0011967711
	             0.0078050493       -0.0084005184        0.0004827179
	             0.0061725166       -0.0060121160       -0.0062708857
	            -0.0009197834        0.0016743698        0.0026693591
	            -0.0023653436       -0.0007100766       -0.0024759450
	             0.0030424829       -0.0055321611        0.0083497555
	             0.0061267285        0.0088221471        0.0001095459
	             0.0083918203       -0.0064804868        0.0000179416
	             0.0015963466        0.0056263989       -0.0082905564
	            -0.0000032316        0.0007806884        0.0009220244
	            -0.0094286989       -0.0021830232       -0.0017041798
	             0.0039636331        0.0020304228       -0.0090007384
	             0.0045080538       -0.0084319067        0.0030855653
	            -0.0035914643        0.0017521398        0.0099119438
	            -0.0025169322        0.0084019182       -0.0050000109

	Previous optimization step data not found.  Starting new optimization.

	---Fragment 1 Intrafragment Coordinates---
	 - Coordinate -           - BOHR/RAD -       - ANG/DEG -
	 R(1,2)           =         2.874319	       1.521024
	 R(1,16)          =         2.910125	       1.539972
	 R(1,25)          =         2.083837	       1.102719
	 R(1,26)          =         2.093318	       1.107736
	 R(2,3)           =         2.784732	       1.473617
	 R(2,14)          =         2.578254	       1.364353
	 R(3,4)           =         2.671053	       1.413460
	 R(3,8)           =         2.671324	       1.413604
	 R(4,5)           =         2.651563	       1.403147
	 R(4,13)          =         2.067163	       1.093895
	 R(5,6)           =         2.653857	       1.404361
	 R(5,12)          =         2.068129	       1.094407
	 R(6,7)           =         2.655016	       1.404974
	 R(6,11)          =         2.067330	       1.093984
	 R(7,8)           =         2.649927	       1.402281
	 R(7,10)          =         2.068014	       1.094346
	 R(8,9)           =         2.068249	       1.094470
	 R(14,15)         =         2.865016	       1.516101
	 R(14,21)         =         2.833262	       1.499298
	 R(15,16)         =         2.908878	       1.539312
	 R(15,19)         =         2.086400	       1.104075
	 R(15,20)         =         2.095211	       1.108738
	 R(16,17)         =         2.084328	       1.102979
	 R(16,18)         =         2.081237	       1.101343
	 R(21,22)         =         2.078396	       1.099840
	 R(21,23)         =         2.086625	       1.104194
	 R(21,24)         =         2.087934	       1.104887
	 B(1,2,3)         =         2.132448	     122.180296
	 B(1,2,14)        =         1.928043	     110.468727
	 B(1,16,15)       =         1.815021	     103.993068
	 B(1,16,17)       =         1.897117	     108.696781
	 B(1,16,18)       =         1.980503	     113.474479
	 B(2,1,16)        =         1.790127	     102.566700
	 B(2,1,25)        =         1.968972	     112.813790
	 B(2,1,26)        =         1.922464	     110.149081
	 B(2,3,4)         =         2.119286	     121.426120
	 B(2,3,8)         =         2.099640	     120.300495
	 B(2,14,15)       =         1.927736	     110.451137
	 B(2,14,21)       =         2.242975	     128.512983
	 B(3,2,14)        =         2.220651	     127.233923
	 B(3,4,5)         =         2.109388	     120.859024
	 B(3,4,13)        =         2.080147	     119.183628
	 B(3,8,7)         =         2.110063	     120.897728
	 B(3,8,9)         =         2.084192	     119.415378
	 B(4,3,8)         =         2.063785	     118.246186
	 B(4,5,6)         =         2.098568	     120.239106
	 B(4,5,12)        =         2.089281	     119.706964
	 B(5,4,13)        =         2.093145	     119.928351
	 B(5,6,7)         =         2.085899	     119.513219
	 B(5,6,11)        =         2.098751	     120.249570
	 B(6,5,12)        =         2.095250	     120.048967
	 B(6,7,8)         =         2.098279	     120.222516
	 B(6,7,10)        =         2.095045	     120.037222
	 B(7,6,11)        =         2.098475	     120.233738
	 B(7,8,9)         =         2.088843	     119.681864
	 B(8,7,10)        =         2.089860	     119.740132
	 B(14,15,16)      =         1.799406	     103.098356
	 B(14,15,19)      =         1.968736	     112.800279
	 B(14,15,20)      =         1.912013	     109.550255
	 B(14,21,22)      =         1.956670	     112.108928
	 B(14,21,23)      =         1.916015	     109.779573
	 B(14,21,24)      =         1.942233	     111.281772
	 B(15,14,21)      =         2.108376	     120.801049
	 B(15,16,17)      =         1.899693	     108.844371
	 B(15,16,18)      =         1.981979	     113.559042
	 B(16,1,25)       =         1.977226	     113.286730
	 B(16,1,26)       =         1.935744	     110.909973
	 B(16,15,19)      =         1.976291	     113.233108
	 B(16,15,20)      =         1.945680	     111.479279
	 B(17,16,18)      =         1.886638	     108.096378
	 B(19,15,20)      =         1.862719	     106.725958
	 B(22,21,23)      =         1.892897	     108.455036
	 B(22,21,24)      =         1.890932	     108.342411
	 B(23,21,24)      =         1.861979	     106.683530
	 B(25,1,26)       =         1.869917	     107.138345
	 D(1,2,3,4)       =        -2.462500	    -141.090867
	 D(1,2,3,8)       =         0.645400	      36.978697
	 D(1,2,14,15)     =         0.031048	       1.778925
	 D(1,2,14,21)     =        -3.012567	    -172.607364
	 D(1,16,15,14)    =        -0.499803	     -28.636594
	 D(1,16,15,19)    =        -2.632586	    -150.836039
	 D(1,16,15,20)    =         1.549857	      88.800282
	 D(2,1,16,15)     =         0.514363	      29.470838
	 D(2,1,16,17)     =        -1.507311	     -86.362554
	 D(2,1,16,18)     =         2.676299	     153.340666
	 D(2,3,4,5)       =         3.136447	     179.705195
	 D(2,3,4,13)      =         0.029066	       1.665353
	 D(2,3,8,7)       =        -3.138209	    -179.806114
	 D(2,3,8,9)       =         0.017671	       1.012458
	 D(2,14,15,16)    =         0.300808	      17.235016
	 D(2,14,15,19)    =         2.438658	     139.724821
	 D(2,14,15,20)    =        -1.772435	    -101.553028
	 D(2,14,21,22)    =         0.167316	       9.586503
	 D(2,14,21,23)    =         2.272366	     130.196980
	 D(2,14,21,24)    =        -1.953574	    -111.931530
	 D(3,2,1,16)      =         2.856778	     163.681328
	 D(3,2,1,25)      =         0.723627	      41.460773
	 D(3,2,1,26)      =        -1.364858	     -78.200577
	 D(3,2,14,15)     =         3.104559	     177.878117
	 D(3,2,14,21)     =         0.060944	       3.491829
	 D(3,4,5,6)       =        -0.009298	      -0.532741
	 D(3,4,5,12)      =        -3.136753	    -179.722706
	 D(3,8,7,6)       =         0.012040	       0.689867
	 D(3,8,7,10)      =        -3.131840	    -179.441216
	 D(4,3,2,14)      =         0.754466	      43.227732
	 D(4,3,8,7)       =        -0.029252	      -1.676026
	 D(4,3,8,9)       =         3.126627	     179.142545
	 D(4,5,6,7)       =        -0.008597	      -0.492558
	 D(4,5,6,11)      =        -3.138387	    -179.816317
	 D(5,4,3,8)       =         0.027876	       1.597200
	 D(5,6,7,8)       =         0.007241	       0.414863
	 D(5,6,7,10)      =        -3.132057	    -179.453662
	 D(6,5,4,13)      =         3.097830	     177.492594
	 D(6,7,8,9)       =         3.139309	     179.869135
	 D(7,6,5,12)      =         3.118810	     178.694624
	 D(8,3,2,14)      =        -2.420819	    -138.702704
	 D(8,3,4,13)      =        -3.079505	    -176.442642
	 D(8,7,6,11)      =         3.137033	     179.738730
	 D(9,8,7,10)      =        -0.004572	      -0.261949
	 D(10,7,6,11)     =        -0.002265	      -0.129795
	 D(11,6,5,12)     =        -0.010980	      -0.629134
	 D(12,5,4,13)     =        -0.029625	      -1.697371
	 D(14,2,1,16)     =        -0.348852	     -19.987768
	 D(14,2,1,25)     =        -2.482003	    -142.208323
	 D(14,2,1,26)     =         1.712697	      98.130327
	 D(14,15,16,17)   =         1.520059	      87.092954
	 D(14,15,16,18)   =        -2.660781	    -152.451540
	 D(15,14,21,22)   =        -2.867367	    -164.288012
	 D(15,14,21,23)   =        -0.762317	     -43.677535
	 D(15,14,21,24)   =         1.294929	      74.193955
	 D(15,16,1,25)    =         2.641906	     151.370088
	 D(15,16,1,26)    =        -1.537774	     -88.107935
	 D(16,15,14,21)   =        -2.930014	    -167.877438
	 D(17,16,1,25)    =         0.620232	      35.536695
	 D(17,16,1,26)    =         2.723738	     156.058672
	 D(17,16,15,19)   =        -0.612724	     -35.106492
	 D(17,16,15,20)   =        -2.713466	    -155.470171
	 D(18,16,1,25)    =        -1.479343	     -84.760085
	 D(18,16,1,26)    =         0.624163	      35.761892
	 D(18,16,15,19)   =         1.489621	      85.349014
	 D(18,16,15,20)   =        -0.611121	     -35.014665
	 D(19,15,14,21)   =        -0.792164	     -45.387633
	 D(20,15,14,21)   =         1.279929	      73.334518
	 R(4,21)          =         6.175900	       3.268146

	Current energy   :      -464.8506597806

	Generating empirical Hessian (Schlegel '84) for each fragment.
	Taking RFO optimization step.
	Going to follow RFO solution 1.
	Using RFO vector 1.
	Norm of target step-size    0.17815
	Projected energy change by RFO approximation:        -0.0097967266

	Back-transformation to cartesian coordinates...
	Successfully converged to displaced geometry.

	--- Internal Coordinate Step in ANG or DEG, aJ/ANG or AJ/DEG ---
	 ---------------------------------------------------------------------------
	   Coordinate                Previous        Force       Change         New 
	   ----------                --------       ------       ------       ------
	    1 R(1,2)          =      1.521024    -0.072764    -0.015786     1.505238
	    2 R(1,16)         =      1.539972    -0.072570    -0.014042     1.525930
	    3 R(1,25)         =      1.102719    -0.087986    -0.016402     1.086317
	    4 R(1,26)         =      1.107736    -0.083161    -0.015751     1.091985
	    5 R(2,3)          =      1.473617    -0.105422    -0.020509     1.453107
	    6 R(2,14)         =      1.364353    -0.133098    -0.018811     1.345543
	    7 R(3,4)          =      1.413460    -0.128635    -0.019230     1.394231
	    8 R(3,8)          =      1.413604    -0.133698    -0.019471     1.394133
	    9 R(4,5)          =      1.403147    -0.131853    -0.018327     1.384819
	   10 R(4,13)         =      1.093895    -0.094516    -0.017131     1.076765
	   11 R(5,6)          =      1.404361    -0.129673    -0.017943     1.386418
	   12 R(5,12)         =      1.094407    -0.097318    -0.017667     1.076739
	   13 R(6,7)          =      1.404974    -0.129505    -0.017972     1.387001
	   14 R(6,11)         =      1.093984    -0.099216    -0.017988     1.075996
	   15 R(7,8)          =      1.402281    -0.130788    -0.018152     1.384129
	   16 R(7,10)         =      1.094346    -0.097066    -0.017618     1.076728
	   17 R(8,9)          =      1.094470    -0.094809    -0.017216     1.077255
	   18 R(14,15)        =      1.516101    -0.076131    -0.016024     1.500077
	   19 R(14,21)        =      1.499298    -0.077829    -0.015681     1.483617
	   20 R(15,16)        =      1.539312    -0.073612    -0.013978     1.525334
	   21 R(15,19)        =      1.104075    -0.087283    -0.016341     1.087734
	   22 R(15,20)        =      1.108738    -0.083539    -0.015872     1.092866
	   23 R(16,17)        =      1.102979    -0.086208    -0.016084     1.086895
	   24 R(16,18)        =      1.101343    -0.088470    -0.016421     1.084922
	   25 R(21,22)        =      1.099840    -0.080904    -0.014945     1.084895
	   26 R(21,23)        =      1.104194    -0.082712    -0.015491     1.088703
	   27 R(21,24)        =      1.104887    -0.082746    -0.015532     1.089355
	   28 B(1,2,3)        =    122.180296    -0.000382    -0.482788   121.697508
	   29 B(1,2,14)       =    110.468727     0.000053     0.106242   110.574969
	   30 B(1,16,15)      =    103.993068    -0.000132    -0.102319   103.890749
	   31 B(1,16,17)      =    108.696781     0.000019    -0.060223   108.636558
	   32 B(1,16,18)      =    113.474479     0.000052     0.040084   113.514563
	   33 B(2,1,16)       =    102.566700    -0.000008    -0.025159   102.541541
	   34 B(2,1,25)       =    112.813790     0.000010    -0.037587   112.776204
	   35 B(2,1,26)       =    110.149081    -0.000009    -0.019961   110.129120
	   36 B(2,3,4)        =    121.426120     0.000264     0.320177   121.746297
	   37 B(2,3,8)        =    120.300495    -0.000187    -0.239871   120.060624
	   38 B(2,14,15)      =    110.451137     0.000099     0.143979   110.595115
	   39 B(2,14,21)      =    128.512983     0.000177     0.129328   128.642311
	   40 B(3,2,14)       =    127.233923     0.000328     0.367000   127.600922
	   41 B(3,4,5)        =    120.859024     0.000060     0.116200   120.975223
	   42 B(3,4,13)       =    119.183628    -0.000046    -0.124560   119.059069
	   43 B(3,8,7)        =    120.897728     0.000055     0.088070   120.985797
	   44 B(3,8,9)        =    119.415378    -0.000038    -0.091575   119.323803
	   45 B(4,3,8)        =    118.246186    -0.000077    -0.082224   118.163962
	   46 B(4,5,6)        =    120.239106    -0.000018    -0.067765   120.171341
	   47 B(4,5,12)       =    119.706964     0.000011     0.043837   119.750800
	   48 B(5,4,13)       =    119.928351    -0.000014     0.017031   119.945382
	   49 B(5,6,7)        =    119.513219    -0.000013    -0.016364   119.496855
	   50 B(5,6,11)       =    120.249570     0.000007     0.011078   120.260648
	   51 B(6,5,12)       =    120.048967     0.000007     0.024632   120.073598
	   52 B(6,7,8)        =    120.222516    -0.000007    -0.041202   120.181314
	   53 B(6,7,10)       =    120.037222     0.000002     0.014256   120.051479
	   54 B(7,6,11)       =    120.233738     0.000005     0.005069   120.238808
	   55 B(7,8,9)        =    119.681864    -0.000017     0.004199   119.686063
	   56 B(8,7,10)       =    119.740132     0.000005     0.026894   119.767025
	   57 B(14,15,16)     =    103.098356    -0.000016    -0.025533   103.072823
	   58 B(14,15,19)     =    112.800279     0.000011    -0.037283   112.762996
	   59 B(14,15,20)     =    109.550255    -0.000010    -0.070814   109.479442
	   60 B(14,21,22)     =    112.108928    -0.000026    -0.115094   111.993834
	   61 B(14,21,23)     =    109.779573    -0.000013    -0.039888   109.739686
	   62 B(14,21,24)     =    111.281772    -0.000022    -0.113493   111.168278
	   63 B(15,14,21)     =    120.801049    -0.000278    -0.284048   120.517001
	   64 B(15,16,17)     =    108.844371     0.000018    -0.077155   108.767216
	   65 B(15,16,18)     =    113.559042     0.000051     0.038201   113.597243
	   66 B(16,1,25)      =    113.286730    -0.000026    -0.071299   113.215430
	   67 B(16,1,26)      =    110.909973     0.000019    -0.006179   110.903794
	   68 B(16,15,19)     =    113.233108    -0.000007    -0.012777   113.220331
	   69 B(16,15,20)     =    111.479279     0.000005    -0.059165   111.420114
	   70 B(17,16,18)     =    108.096378    -0.000010     0.142911   108.239289
	   71 B(19,15,20)     =    106.725958     0.000016     0.189452   106.915411
	   72 B(22,21,23)     =    108.455036     0.000028     0.153689   108.608725
	   73 B(22,21,24)     =    108.342411     0.000019     0.055307   108.397718
	   74 B(23,21,24)     =    106.683530     0.000017     0.076041   106.759571
	   75 B(25,1,26)      =    107.138345     0.000013     0.149572   107.287917
	   76 D(1,2,3,4)      =   -141.090867     0.000005    -0.645977  -141.736844
	   77 D(1,2,3,8)      =     36.978697    -0.000001    -0.714668    36.264028
	   78 D(1,2,14,15)    =      1.778925     0.000003     0.070059     1.848983
	   79 D(1,2,14,21)    =   -172.607364     0.000012     0.213333  -172.394030
	   80 D(1,16,15,14)   =    -28.636594     0.000006     0.204073   -28.432521
	   81 D(1,16,15,19)   =   -150.836039     0.000007     0.273072  -150.562967
	   82 D(1,16,15,20)   =     88.800282     0.000002     0.079272    88.879554
	   83 D(2,1,16,15)    =     29.470838    -0.000005    -0.169184    29.301654
	   84 D(2,1,16,17)    =    -86.362554     0.000004    -0.003952   -86.366507
	   85 D(2,1,16,18)    =    153.340666    -0.000004    -0.168747   153.171919
	   86 D(2,3,4,5)      =    179.705195    -0.000003     0.044896   179.750091
	   87 D(2,3,4,13)     =      1.665353    -0.000006    -0.274255     1.391099
	   88 D(2,3,8,7)      =   -179.806114     0.000001    -0.062419  -179.868533
	   89 D(2,3,8,9)      =      1.012458     0.000001    -0.121008     0.891449
	   90 D(2,14,15,16)   =     17.235016     0.000003    -0.130188    17.104828
	   91 D(2,14,15,19)   =    139.724821    -0.000000    -0.182401   139.542420
	   92 D(2,14,15,20)   =   -101.553028     0.000004    -0.015684  -101.568712
	   93 D(2,14,21,22)   =      9.586503    -0.000005    -0.277309     9.309194
	   94 D(2,14,21,23)   =    130.196980    -0.000002    -0.186082   130.010898
	   95 D(2,14,21,24)   =   -111.931530    -0.000002    -0.186707  -112.118237
	   96 D(3,2,1,16)     =    163.681328    -0.000006     0.150028   163.831356
	   97 D(3,2,1,25)     =     41.460773     0.000001     0.271852    41.732625
	   98 D(3,2,1,26)     =    -78.200577    -0.000003     0.120488   -78.080089
	   99 D(3,2,14,15)    =    177.878117    -0.000006    -0.107951   177.770167
	  100 D(3,2,14,21)    =      3.491829     0.000003     0.035324     3.527153
	  101 D(3,4,5,6)      =     -0.532741    -0.000002    -0.042433    -0.575174
	  102 D(3,4,5,12)     =   -179.722706    -0.000002    -0.102186  -179.824892
	  103 D(3,8,7,6)      =      0.689867     0.000001     0.053762     0.743629
	  104 D(3,8,7,10)     =   -179.441216     0.000001     0.029724  -179.411492
	  105 D(4,3,2,14)     =     43.227732     0.000011    -0.475659    42.752073
	  106 D(4,3,8,7)      =     -1.676026    -0.000003    -0.120825    -1.796851
	  107 D(4,3,8,9)      =    179.142545    -0.000003    -0.179414   178.963131
	  108 D(4,5,6,7)      =     -0.492558    -0.000001    -0.029585    -0.522143
	  109 D(4,5,6,11)     =   -179.816317     0.000000    -0.008872  -179.825189
	  110 D(5,4,3,8)      =      1.597200     0.000003     0.115485     1.712685
	  111 D(5,6,7,8)      =      0.414863     0.000001     0.024185     0.439048
	  112 D(5,6,7,10)     =   -179.453662     0.000001     0.048276  -179.405387
	  113 D(6,5,4,13)     =    177.492594     0.000001     0.276793   177.769388
	  114 D(6,7,8,9)      =    179.869135     0.000001     0.111788   179.980923
	  115 D(7,6,5,12)     =    178.694624    -0.000001     0.030515   178.725138
	  116 D(8,3,2,14)     =   -138.702704     0.000005    -0.544350  -139.247055
	  117 D(8,3,4,13)     =   -176.442642     0.000000    -0.203665  -176.646307
	  118 D(8,7,6,11)     =    179.738730    -0.000000     0.003519   179.742249
	  119 D(9,8,7,10)     =     -0.261949     0.000001     0.087750    -0.174198
	  120 D(10,7,6,11)    =     -0.129795     0.000000     0.027609    -0.102186
	  121 D(11,6,5,12)    =     -0.629134     0.000000     0.051227    -0.577907
	  122 D(12,5,4,13)    =     -1.697371     0.000001     0.217041    -1.480330
	  123 D(14,2,1,16)    =    -19.987768    -0.000008     0.021437   -19.966331
	  124 D(14,2,1,25)    =   -142.208323    -0.000001     0.143261  -142.065061
	  125 D(14,2,1,26)    =     98.130327    -0.000005    -0.008103    98.122225
	  126 D(14,15,16,17)  =     87.092954    -0.000002     0.050461    87.143414
	  127 D(14,15,16,18)  =   -152.451540     0.000006     0.202511  -152.249029
	  128 D(15,14,21,22)  =   -164.288012     0.000000    -0.145294  -164.433307
	  129 D(15,14,21,23)  =    -43.677535     0.000002    -0.054067   -43.731602
	  130 D(15,14,21,24)  =     74.193955     0.000002    -0.054692    74.139263
	  131 D(15,16,1,25)   =    151.370088    -0.000006    -0.268599   151.101488
	  132 D(15,16,1,26)   =    -88.107935    -0.000003    -0.129453   -88.237388
	  133 D(16,15,14,21)  =   -167.877438     0.000001    -0.235738  -168.113176
	  134 D(17,16,1,25)   =     35.536695     0.000002    -0.103367    35.433328
	  135 D(17,16,1,26)   =    156.058672     0.000005     0.035779   156.094452
	  136 D(17,16,15,19)  =    -35.106492    -0.000002     0.119460   -34.987032
	  137 D(17,16,15,20)  =   -155.470171    -0.000006    -0.074340  -155.544511
	  138 D(18,16,1,25)   =    -84.760085    -0.000006    -0.268162   -85.028247
	  139 D(18,16,1,26)   =     35.761892    -0.000003    -0.129015    35.632877
	  140 D(18,16,15,19)  =     85.349014     0.000006     0.271510    85.620525
	  141 D(18,16,15,20)  =    -35.014665     0.000001     0.077710   -34.936955
	  142 D(19,15,14,21)  =    -45.387633    -0.000002    -0.287951   -45.675584
	  143 D(20,15,14,21)  =     73.334518     0.000003    -0.121234    73.213284
	  144 R(4,21)         =      3.268146    -0.023582    -0.027932     3.240213
	 ---------------------------------------------------------------------------
	Successfully symmetrized geometry.

  ==> Convergence Check <==

  Measures of convergence in internal coordinates in au.
  Criteria marked as inactive (o), active & met (*), and active & unmet ( ).
  --------------------------------------------------------------------------------------------- ~
   Step     Total Energy     Delta E     MAX Force     RMS Force      MAX Disp      RMS Disp    ~
  --------------------------------------------------------------------------------------------- ~
    Convergence Criteria    1.00e-06 *    3.00e-04 *             o    1.20e-03 *             o  ~
  --------------------------------------------------------------------------------------------- ~
      1    -464.85065978   -4.65e+02      1.62e-02      5.33e-03 o    5.28e-02      1.48e-02 o  ~
  ---------------------------------------------------------------------------------------------

	Writing optimization data to binary file.
	Structure for next step:
	Cartesian Geometry (in Angstrom)
	    C     1.3785062633   1.5492802486   0.6713528151
	    C     0.7832135602   0.3328143912   0.0144059009
	    C    -0.6216350089  -0.0062687055   0.1658797295
	    C    -1.0471794969  -1.3272295925   0.2994983847
	    C    -2.3898697412  -1.6319090234   0.4480862667
	    C    -3.3352367874  -0.6182325479   0.4780258591
	    C    -2.9245199371   0.7020725056   0.3690347735
	    C    -1.5815285746   1.0031970031   0.2223649155
	    H    -1.2714234866   2.0314070213   0.1381231750
	    H    -3.6502007174   1.4968797647   0.4008325252
	    H    -4.3785991956  -0.8531591730   0.5962316071
	    H    -2.6963639218  -2.6588066976   0.5525352841
	    H    -0.3127071562  -2.1145010801   0.3127726610
	    C     1.6992212878  -0.2864999122  -0.7523171723
	    C     3.0225249891   0.4143623838  -0.6634971336
	    C     2.8764415543   1.2696441389   0.5910129301
	    H     3.1657979078   0.6762483288   1.4544334518
	    H     3.4843901728   2.1681246897   0.5773098039
	    H     3.8619843939  -0.2757686435  -0.6166780660
	    H     3.1680968676   1.0322584524  -1.5530862611
	    C     1.5086745085  -1.4203650996  -1.6899532498
	    H     0.4592015300  -1.6475745298  -1.8448064204
	    H     1.9580289466  -1.1811907313  -2.6523204386
	    H     2.0050348934  -2.3192689318  -1.3262324989
	    H     1.0238701933   1.6942425236   1.6878681016
	    H     1.1188113253   2.4466913588   0.1059824266
			--------------------------
			 OPTKING Finished Execution 
			--------------------------

    Structure for next step:
    Molecular point group: c1
    Full point group: C1

    Geometry (in Angstrom), charge = 0, multiplicity = 1:

    C            1.375841205178     1.547573528082     0.673485918074
    C            0.780548499721     0.331107665816     0.016539001280
    C           -0.624300074890    -0.007975432170     0.168012830499
    C           -1.049844564596    -1.328936324350     0.301631486162
    C           -2.392534814202    -1.633615756467     0.450219368754
    C           -3.337901864118    -0.619939277019     0.480158961322
    C           -2.927185012149     0.700365781705     0.371167875309
    C           -1.584193644399     1.001490280413     0.224498016725
    H           -1.274088555151     2.029700302612     0.140256275846
    H           -3.652865795325     1.495173043942     0.402965627107
    H           -4.381264276424    -0.854865903040     0.598364709725
    H           -2.699028995923    -2.660513434666     0.554668386615
    H           -0.315372220957    -2.116207815065     0.314905762598
    C            1.696556230866    -0.288206639932    -0.750184074924
    C            3.019859937391     0.412655658794    -0.661364035882
    C            2.873776502082     1.267937417289     0.593146032723
    H            3.163132856660     0.674541604818     1.456566557874
    H            3.481725122942     2.166417971574     0.579442906516
    H            3.859319345471    -0.277475371236    -0.614544968097
    H            3.165431816526     1.030551729815    -1.550953166923
    C            1.506009450853    -1.422071831845    -1.687820156159
    H            0.456536468229    -1.649281262953    -1.842673327339
    H            1.955363890736    -1.182897462600    -2.650187348664
    H            2.002369837689    -2.320975667578    -1.324099403777
    H            1.021205133750     1.692535803657     1.690001208553
    H            1.116146266103     2.444984641734     0.108115527303


Scratch directory: /local_scratch/pbs.4129852.pbs02/
gradient() will perform analytic gradient computation.

*** tstart() called on skystd27.palmetto.clemson.edu
*** at Sat Dec 11 17:57:11 2021

   => Loading Basis Set <=

    Name: CC-PVTZ
    Role: ORBITAL
    Keyword: BASIS
    atoms 1-8, 14-16, 21     entry C          line   186 file /home/maxbuskirk/.conda/envs/psifour/share/psi4/basis/cc-pvtz.gbs 
    atoms 9-13, 17-20, 22-26 entry H          line    23 file /home/maxbuskirk/.conda/envs/psifour/share/psi4/basis/cc-pvtz.gbs 


         ---------------------------------------------------------
                                   SCF
               by Justin Turney, Rob Parrish, Andy Simmonett
                          and Daniel G. A. Smith
                              RHF Reference
                        1 Threads,    500 MiB Core
         ---------------------------------------------------------

  ==> Geometry <==

    Molecular point group: c1
    Full point group: C1

    Geometry (in Angstrom), charge = 0, multiplicity = 1:

       Center              X                  Y                   Z               Mass       
    ------------   -----------------  -----------------  -----------------  -----------------
         C            1.375841205178     1.547573528082     0.673485918074    12.000000000000
         C            0.780548499721     0.331107665816     0.016539001280    12.000000000000
         C           -0.624300074890    -0.007975432170     0.168012830499    12.000000000000
         C           -1.049844564596    -1.328936324350     0.301631486162    12.000000000000
         C           -2.392534814202    -1.633615756467     0.450219368754    12.000000000000
         C           -3.337901864118    -0.619939277019     0.480158961322    12.000000000000
         C           -2.927185012149     0.700365781705     0.371167875309    12.000000000000
         C           -1.584193644399     1.001490280413     0.224498016725    12.000000000000
         H           -1.274088555151     2.029700302612     0.140256275846     1.007825032230
         H           -3.652865795325     1.495173043942     0.402965627107     1.007825032230
         H           -4.381264276424    -0.854865903040     0.598364709725     1.007825032230
         H           -2.699028995923    -2.660513434666     0.554668386615     1.007825032230
         H           -0.315372220957    -2.116207815065     0.314905762598     1.007825032230
         C            1.696556230866    -0.288206639932    -0.750184074924    12.000000000000
         C            3.019859937391     0.412655658794    -0.661364035882    12.000000000000
         C            2.873776502082     1.267937417289     0.593146032723    12.000000000000
         H            3.163132856660     0.674541604818     1.456566557874     1.007825032230
         H            3.481725122942     2.166417971574     0.579442906516     1.007825032230
         H            3.859319345471    -0.277475371236    -0.614544968097     1.007825032230
         H            3.165431816526     1.030551729815    -1.550953166923     1.007825032230
         C            1.506009450853    -1.422071831845    -1.687820156159    12.000000000000
         H            0.456536468229    -1.649281262953    -1.842673327339     1.007825032230
         H            1.955363890736    -1.182897462600    -2.650187348664     1.007825032230
         H            2.002369837689    -2.320975667578    -1.324099403777     1.007825032230
         H            1.021205133750     1.692535803657     1.690001208553     1.007825032230
         H            1.116146266103     2.444984641734     0.108115527303     1.007825032230

  Running in c1 symmetry.

  Rotational constants: A =      0.06817  B =      0.02039  C =      0.01691 [cm^-1]
  Rotational constants: A =   2043.71108  B =    611.26524  C =    507.02847 [MHz]
  Nuclear repulsion =  659.410874030120908

  Charge       = 0
  Multiplicity = 1
  Electrons    = 86
  Nalpha       = 43
  Nbeta        = 43

  ==> Algorithm <==

  SCF Algorithm Type is DF.
  DIIS enabled.
  MOM disabled.
  Fractional occupation disabled.
  Guess Type is READ.
  Energy threshold   = 1.00e-10
  Density threshold  = 1.00e-10
  Integral threshold = 1.00e-12

  ==> Primary Basis <==

  Basis Set: CC-PVTZ
    Blend: CC-PVTZ
    Number of shells: 204
    Number of basis functions: 556
    Number of Cartesian functions: 630
    Spherical Harmonics?: true
    Max angular momentum: 3

   => Loading Basis Set <=

    Name: (CC-PVTZ AUX)
    Role: JKFIT
    Keyword: DF_BASIS_SCF
    atoms 1-8, 14-16, 21     entry C          line   125 file /home/maxbuskirk/.conda/envs/psifour/share/psi4/basis/cc-pvtz-jkfit.gbs 
    atoms 9-13, 17-20, 22-26 entry H          line    51 file /home/maxbuskirk/.conda/envs/psifour/share/psi4/basis/cc-pvtz-jkfit.gbs 

   => Loading Basis Set <=

    Name: CC-PVTZ
    Role: ORBITAL
    Keyword: BASIS
    atoms 1-8, 14-16, 21     entry C          line   186 file /home/maxbuskirk/.conda/envs/psifour/share/psi4/basis/cc-pvtz.gbs 
    atoms 9-13, 17-20, 22-26 entry H          line    23 file /home/maxbuskirk/.conda/envs/psifour/share/psi4/basis/cc-pvtz.gbs 

  Reading orbitals from file /local_scratch/pbs.4129852.pbs02/pH.mol.413217.180.npy, no projection.

  ==> Integral Setup <==

  ==> DiskDFJK: Density-Fitted J/K Matrices <==

    J tasked:                  Yes
    K tasked:                  Yes
    wK tasked:                  No
    OpenMP threads:              1
    Integrals threads:           1
    Memory [MiB]:              375
    Algorithm:                Disk
    Integral Cache:           NONE
    Schwarz Cutoff:          1E-12
    Fitting Condition:       1E-10

   => Auxiliary Basis Set <=

  Basis Set: (CC-PVTZ AUX)
    Blend: CC-PVTZ-JKFIT
    Number of shells: 440
    Number of basis functions: 1368
    Number of Cartesian functions: 1642
    Spherical Harmonics?: true
    Max angular momentum: 4

  Minimum eigenvalue in the overlap matrix is 2.8803419348E-05.
  Reciprocal condition number of the overlap matrix is 3.1676326894E-06.
    Using symmetric orthogonalization.

  ==> Pre-Iterations <==

  SCF Guess: Orbitals guess was supplied from a previous computation.

   -------------------------------------------------------
    Irrep   Nso     Nmo     Nalpha   Nbeta   Ndocc  Nsocc
   -------------------------------------------------------
     A        556     556      43      43      43       0
   -------------------------------------------------------
    Total     556     556      43      43      43       0
   -------------------------------------------------------

  ==> Iterations <==

                           Total Energy        Delta E     RMS |[F,P]|

   @DF-RHF iter   0:  -462.84570966643327   -4.62846e+02   2.27442e-04 
   @DF-RHF iter   1:  -462.71514242640183    1.30567e-01   3.24881e-05 DIIS
   @DF-RHF iter   2:  -462.71533558252048   -1.93156e-04   1.74116e-05 DIIS
   @DF-RHF iter   3:  -462.71538319563433   -4.76131e-05   4.33207e-06 DIIS
   @DF-RHF iter   4:  -462.71538701087377   -3.81524e-06   1.74486e-06 DIIS
   @DF-RHF iter   5:  -462.71538758602225   -5.75148e-07   3.97042e-07 DIIS
   @DF-RHF iter   6:  -462.71538764523689   -5.92146e-08   1.45608e-07 DIIS
   @DF-RHF iter   7:  -462.71538765310828   -7.87139e-09   6.40246e-08 DIIS
   @DF-RHF iter   8:  -462.71538765466323   -1.55495e-09   1.94642e-08 DIIS
   @DF-RHF iter   9:  -462.71538765481546   -1.52227e-10   5.95387e-09 DIIS
   @DF-RHF iter  10:  -462.71538765483251   -1.70530e-11   2.21504e-09 DIIS
   @DF-RHF iter  11:  -462.71538765483444   -1.93268e-12   7.37851e-10 DIIS
   @DF-RHF iter  12:  -462.71538765483325    1.19371e-12   3.10822e-10 DIIS
   @DF-RHF iter  13:  -462.71538765483410   -8.52651e-13   1.41594e-10 DIIS
   @DF-RHF iter  14:  -462.71538765483410    0.00000e+00   5.71649e-11 DIIS
  Energy and wave function converged.


  ==> Post-Iterations <==

    Orbital Energies [Eh]
    ---------------------

    Doubly Occupied:                                                      

       1A    -11.233433     2A    -11.227490     3A    -11.227212  
       4A    -11.224672     5A    -11.224042     6A    -11.223899  
       7A    -11.223698     8A    -11.216724     9A    -11.215516  
      10A    -11.214970    11A    -11.214437    12A    -11.212929  
      13A     -1.166292    14A     -1.135530    15A     -1.034654  
      16A     -1.018359    17A     -1.007837    18A     -0.947392  
      19A     -0.904404    20A     -0.828322    21A     -0.823140  
      22A     -0.782829    23A     -0.722997    24A     -0.670041  
      25A     -0.646627    26A     -0.644694    27A     -0.624509  
      28A     -0.613748    29A     -0.585128    30A     -0.573099  
      31A     -0.570196    32A     -0.545748    33A     -0.536041  
      34A     -0.510167    35A     -0.502513    36A     -0.490148  
      37A     -0.479273    38A     -0.478708    39A     -0.468892  
      40A     -0.461951    41A     -0.365166    42A     -0.334104  
      43A     -0.291617  

    Virtual:                                                              

      44A      0.114163    45A      0.130588    46A      0.137425  
      47A      0.152793    48A      0.158841    49A      0.173116  
      50A      0.180357    51A      0.182099    52A      0.192052  
      53A      0.206653    54A      0.210886    55A      0.221569  
      56A      0.230292    57A      0.237722    58A      0.242385  
      59A      0.249762    60A      0.268890    61A      0.303488  
      62A      0.311179    63A      0.331479    64A      0.340530  
      65A      0.355311    66A      0.360827    67A      0.365600  
      68A      0.374532    69A      0.391046    70A      0.392715  
      71A      0.416043    72A      0.425543    73A      0.436458  
      74A      0.444539    75A      0.451152    76A      0.463583  
      77A      0.474528    78A      0.479948    79A      0.492435  
      80A      0.500181    81A      0.507959    82A      0.514110  
      83A      0.525906    84A      0.534427    85A      0.556551  
      86A      0.564172    87A      0.570047    88A      0.574592  
      89A      0.579322    90A      0.583818    91A      0.592678  
      92A      0.596894    93A      0.603258    94A      0.608602  
      95A      0.611486    96A      0.616279    97A      0.626878  
      98A      0.629978    99A      0.635651   100A      0.640463  
     101A      0.647089   102A      0.657270   103A      0.659322  
     104A      0.669535   105A      0.673583   106A      0.678289  
     107A      0.682449   108A      0.690413   109A      0.693860  
     110A      0.700750   111A      0.710427   112A      0.723698  
     113A      0.731912   114A      0.736287   115A      0.740291  
     116A      0.748354   117A      0.765534   118A      0.771624  
     119A      0.780396   120A      0.788632   121A      0.806636  
     122A      0.832767   123A      0.851658   124A      0.853438  
     125A      0.875087   126A      0.891128   127A      0.908274  
     128A      0.913437   129A      0.921570   130A      0.936272  
     131A      0.943087   132A      0.955453   133A      0.967883  
     134A      0.984657   135A      0.997515   136A      1.005542  
     137A      1.017621   138A      1.025793   139A      1.029940  
     140A      1.035635   141A      1.047966   142A      1.067034  
     143A      1.075115   144A      1.082529   145A      1.090746  
     146A      1.105286   147A      1.108884   148A      1.117039  
     149A      1.143744   150A      1.146161   151A      1.164345  
     152A      1.179210   153A      1.184086   154A      1.195760  
     155A      1.201605   156A      1.208417   157A      1.219067  
     158A      1.226738   159A      1.238220   160A      1.244554  
     161A      1.256986   162A      1.259698   163A      1.280998  
     164A      1.292585   165A      1.295726   166A      1.305432  
     167A      1.305798   168A      1.319234   169A      1.339050  
     170A      1.344097   171A      1.363569   172A      1.367967  
     173A      1.375185   174A      1.393093   175A      1.396897  
     176A      1.406508   177A      1.409677   178A      1.424098  
     179A      1.428162   180A      1.432859   181A      1.463120  
     182A      1.463951   183A      1.467049   184A      1.479818  
     185A      1.481776   186A      1.493260   187A      1.509945  
     188A      1.524057   189A      1.526532   190A      1.533995  
     191A      1.539567   192A      1.547192   193A      1.553272  
     194A      1.568665   195A      1.571756   196A      1.573769  
     197A      1.587372   198A      1.599571   199A      1.602190  
     200A      1.621096   201A      1.625228   202A      1.629493  
     203A      1.638870   204A      1.646915   205A      1.659669  
     206A      1.670534   207A      1.690270   208A      1.693337  
     209A      1.694843   210A      1.714710   211A      1.732147  
     212A      1.743000   213A      1.756059   214A      1.764360  
     215A      1.769672   216A      1.781784   217A      1.794892  
     218A      1.807225   219A      1.822595   220A      1.833682  
     221A      1.848200   222A      1.867257   223A      1.875759  
     224A      1.921549   225A      1.960339   226A      1.984918  
     227A      1.987852   228A      2.002613   229A      2.037412  
     230A      2.094873   231A      2.137789   232A      2.204021  
     233A      2.209683   234A      2.236803   235A      2.277881  
     236A      2.336895   237A      2.355012   238A      2.383848  
     239A      2.420357   240A      2.467331   241A      2.470199  
     242A      2.490908   243A      2.516481   244A      2.529465  
     245A      2.553251   246A      2.580720   247A      2.605037  
     248A      2.626668   249A      2.646603   250A      2.652368  
     251A      2.670171   252A      2.676700   253A      2.695196  
     254A      2.708605   255A      2.744809   256A      2.753390  
     257A      2.766158   258A      2.779533   259A      2.789723  
     260A      2.800924   261A      2.808410   262A      2.819983  
     263A      2.830296   264A      2.839196   265A      2.852834  
     266A      2.856868   267A      2.862458   268A      2.871578  
     269A      2.882830   270A      2.887796   271A      2.900270  
     272A      2.910564   273A      2.928104   274A      2.936364  
     275A      2.960152   276A      2.966335   277A      2.969567  
     278A      2.977649   279A      2.987230   280A      2.997019  
     281A      3.012624   282A      3.021373   283A      3.021903  
     284A      3.028255   285A      3.044678   286A      3.062226  
     287A      3.071113   288A      3.079458   289A      3.088839  
     290A      3.094205   291A      3.100916   292A      3.116301  
     293A      3.130860   294A      3.142624   295A      3.147666  
     296A      3.158223   297A      3.180849   298A      3.186911  
     299A      3.192192   300A      3.195251   301A      3.222025  
     302A      3.234704   303A      3.241957   304A      3.254495  
     305A      3.267304   306A      3.278772   307A      3.284784  
     308A      3.287973   309A      3.298744   310A      3.316825  
     311A      3.323763   312A      3.330543   313A      3.341284  
     314A      3.352241   315A      3.355356   316A      3.364545  
     317A      3.366805   318A      3.376629   319A      3.392492  
     320A      3.395592   321A      3.399171   322A      3.400400  
     323A      3.410090   324A      3.414742   325A      3.421336  
     326A      3.433123   327A      3.436366   328A      3.441653  
     329A      3.447255   330A      3.454057   331A      3.460269  
     332A      3.467905   333A      3.472313   334A      3.484846  
[...]
	   53 B(6,7,10)       =    120.059310     0.000000     0.001374   120.060684
	   54 B(7,6,11)       =    120.267661    -0.000000    -0.000469   120.267192
	   55 B(7,8,9)        =    119.555727     0.000000     0.000352   119.556079
	   56 B(8,7,10)       =    119.761352     0.000000    -0.000219   119.761133
	   57 B(14,15,16)     =    103.155880    -0.000001    -0.005844   103.150035
	   58 B(14,15,19)     =    112.695112     0.000001     0.010244   112.705356
	   59 B(14,15,20)     =    109.491938    -0.000001    -0.012602   109.479336
	   60 B(14,21,22)     =    112.277986    -0.000000    -0.003998   112.273989
	   61 B(14,21,23)     =    109.668513     0.000001     0.010345   109.678858
	   62 B(14,21,24)     =    111.299696    -0.000001    -0.007100   111.292595
	   63 B(15,14,21)     =    120.274842     0.000002     0.011785   120.286627
	   64 B(15,16,17)     =    108.784435    -0.000000     0.000315   108.784750
	   65 B(15,16,18)     =    113.552302    -0.000000     0.000672   113.552974
	   66 B(16,1,25)      =    113.050258     0.000000     0.004852   113.055110
	   67 B(16,1,26)      =    110.950409     0.000001     0.004160   110.954569
	   68 B(16,15,19)     =    113.152145     0.000000     0.005518   113.157664
	   69 B(16,15,20)     =    111.528473     0.000000     0.001351   111.529824
	   70 B(17,16,18)     =    108.164576     0.000000     0.000257   108.164834
	   71 B(19,15,20)     =    106.856044    -0.000000     0.000690   106.856734
	   72 B(22,21,23)     =    108.502458    -0.000000     0.001367   108.503825
	   73 B(22,21,24)     =    108.254284    -0.000000    -0.007830   108.246454
	   74 B(23,21,24)     =    106.639195     0.000001     0.007829   106.647023
	   75 B(25,1,26)      =    107.219450    -0.000000    -0.000912   107.218538
	   76 D(1,2,3,4)      =   -146.035422    -0.000000    -0.033240  -146.068662
	   77 D(1,2,3,8)      =     32.293447     0.000000    -0.009915    32.283532
	   78 D(1,2,14,15)    =      1.984733     0.000000     0.012687     1.997419
	   79 D(1,2,14,21)    =   -172.199309     0.000000    -0.005795  -172.205104
	   80 D(1,16,15,14)   =    -27.599328     0.000000    -0.026045   -27.625373
	   81 D(1,16,15,19)   =   -149.664278    -0.000000    -0.037696  -149.701974
	   82 D(1,16,15,20)   =     89.824684    -0.000000    -0.043494    89.781190
	   83 D(2,1,16,15)    =     28.569329     0.000000     0.031832    28.601161
	   84 D(2,1,16,17)    =    -87.187698     0.000000     0.031754   -87.155944
	   85 D(2,1,16,18)    =    152.448490     0.000000     0.030279   152.478769
	   86 D(2,3,4,5)      =   -179.983707     0.000000     0.015217  -179.968491
	   87 D(2,3,4,13)     =      2.093468     0.000000     0.011352     2.104820
	   88 D(2,3,8,7)      =    179.751357    -0.000000    -0.005560   179.745797
	   89 D(2,3,8,9)      =      0.529175    -0.000000    -0.021552     0.507623
	   90 D(2,14,15,16)   =     16.499756    -0.000000     0.008489    16.508246
	   91 D(2,14,15,19)   =    138.871414    -0.000000     0.016967   138.888381
	   92 D(2,14,15,20)   =   -102.348960    -0.000000     0.015858  -102.333102
	   93 D(2,14,21,22)   =     12.149825    -0.000000     0.053557    12.203382
	   94 D(2,14,21,23)   =    132.855360     0.000000     0.059778   132.915139
	   95 D(2,14,21,24)   =   -109.386891     0.000000     0.071618  -109.315273
	   96 D(3,2,1,16)     =    164.123088    -0.000000    -0.030172   164.092916
	   97 D(3,2,1,25)     =     42.100176    -0.000000    -0.029858    42.070318
	   98 D(3,2,1,26)     =    -77.652473    -0.000000    -0.029899   -77.682372
	   99 D(3,2,14,15)    =    178.003303     0.000000     0.014771   178.018074
	  100 D(3,2,14,21)    =      3.819261     0.000000    -0.003710     3.815550
	  101 D(3,4,5,6)      =     -0.412660    -0.000000    -0.003175    -0.415835
	  102 D(3,4,5,12)     =   -179.628343    -0.000000    -0.004612  -179.632955
	  103 D(3,8,7,6)      =      0.820239    -0.000000    -0.015531     0.804709
	  104 D(3,8,7,10)     =   -179.386908    -0.000000     0.000760  -179.386148
	  105 D(4,3,2,14)     =     38.347470    -0.000000    -0.035772    38.311698
	  106 D(4,3,8,7)      =     -1.856373     0.000000     0.016868    -1.839505
	  107 D(4,3,8,9)      =    178.921445     0.000000     0.000876   178.922321
	  108 D(4,5,6,7)      =     -0.670305     0.000000     0.004858    -0.665447
	  109 D(4,5,6,11)     =   -179.890160    -0.000000    -0.007807  -179.897967
	  110 D(5,4,3,8)      =      1.652427    -0.000000    -0.007514     1.644912
	  111 D(5,6,7,8)      =      0.469117     0.000000     0.004359     0.473476
	  112 D(5,6,7,10)     =   -179.323116    -0.000000    -0.011977  -179.335093
	  113 D(6,5,4,13)     =    177.498341     0.000000     0.000728   177.499069
	  114 D(6,7,8,9)      =   -179.959238     0.000000     0.000506  -179.958732
	  115 D(7,6,5,12)     =    178.542718     0.000000     0.006291   178.549008
	  116 D(8,3,2,14)     =   -143.323661     0.000000    -0.012447  -143.336108
	  117 D(8,3,4,13)     =   -176.270398    -0.000000    -0.011379  -176.281777
	  118 D(8,7,6,11)     =    179.689125     0.000000     0.017009   179.706135
	  119 D(9,8,7,10)     =     -0.166385     0.000000     0.016797    -0.149588
	  120 D(10,7,6,11)    =     -0.103107     0.000000     0.000673    -0.102434
	  121 D(11,6,5,12)    =     -0.677137    -0.000000    -0.006375    -0.683512
	  122 D(12,5,4,13)    =     -1.717342    -0.000000    -0.000709    -1.718051
	  123 D(14,2,1,16)    =    -19.581517    -0.000000    -0.027966   -19.609482
	  124 D(14,2,1,25)    =   -141.604428    -0.000000    -0.027652  -141.632080
	  125 D(14,2,1,26)    =     98.642923    -0.000000    -0.027693    98.615230
	  126 D(14,15,16,17)  =     88.070033     0.000000    -0.024487    88.045546
	  127 D(14,15,16,18)  =   -151.434522     0.000000    -0.023500  -151.458021
	  128 D(15,14,21,22)  =   -161.551984    -0.000000     0.034392  -161.517592
	  129 D(15,14,21,23)  =    -40.846449    -0.000000     0.040613   -40.805836
	  130 D(15,14,21,24)  =     76.911300     0.000000     0.052453    76.963752
	  131 D(15,16,1,25)   =    150.436845    -0.000000     0.028290   150.465135
	  132 D(15,16,1,26)   =    -89.071843     0.000000     0.033477   -89.038366
	  133 D(16,15,14,21)  =   -168.754684    -0.000000     0.023974  -168.730711
	  134 D(17,16,1,25)   =     34.679818    -0.000000     0.028213    34.708030
	  135 D(17,16,1,26)   =    155.171130     0.000000     0.033400   155.204530
	  136 D(17,16,15,19)  =    -33.994917    -0.000000    -0.036138   -34.031055
	  137 D(17,16,15,20)  =   -154.505955    -0.000000    -0.041936  -154.547891
	  138 D(18,16,1,25)   =    -85.683994    -0.000000     0.026737   -85.657257
	  139 D(18,16,1,26)   =     34.807318     0.000000     0.031925    34.839242
	  140 D(18,16,15,19)  =     86.500528    -0.000000    -0.035150    86.465378
	  141 D(18,16,15,20)  =    -34.010510    -0.000000    -0.040948   -34.051458
	  142 D(19,15,14,21)  =    -46.383027     0.000000     0.032452   -46.350575
	  143 D(20,15,14,21)  =     72.396599    -0.000000     0.031343    72.427942
	  144 R(4,21)         =      3.199823    -0.000140    -0.000493     3.199329
	 ---------------------------------------------------------------------------
	Successfully symmetrized geometry.

  ==> Convergence Check <==

  Measures of convergence in internal coordinates in au.
  Criteria marked as inactive (o), active & met (*), and active & unmet ( ).
  ---------------------------------------------------------------------------------------------
   Step     Total Energy     Delta E     MAX Force     RMS Force      MAX Disp      RMS Disp   
  ---------------------------------------------------------------------------------------------
    Convergence Criteria    1.00e-06 *    3.00e-04 *             o    1.20e-03 *             o
  ---------------------------------------------------------------------------------------------
      7    -464.85597300   -5.68e-07 *    3.30e-05 *    8.78e-06 o    1.25e-03      3.40e-04 o  ~
  ---------------------------------------------------------------------------------------------


  **** Optimization is complete! (in 7 steps) ****

  ==> Optimization Summary <==

  Measures of convergence in internal coordinates in au.
  --------------------------------------------------------------------------------------------------------------- ~
   Step         Total Energy             Delta E       MAX Force       RMS Force        MAX Disp        RMS Disp  ~
  --------------------------------------------------------------------------------------------------------------- ~
      1    -464.850659780650   -464.850659780650      0.01622798      0.00532858      0.05278468      0.01484588  ~
      2    -464.855867044612     -0.005207263963      0.00207082      0.00040656      0.04796312      0.00843815  ~
      3    -464.855940372644     -0.000073328032      0.00060181      0.00010232      0.02233733      0.00617167  ~
      4    -464.855961754442     -0.000021381798      0.00028029      0.00008916      0.01939498      0.00463545  ~
      5    -464.855970114593     -0.000008360151      0.00014893      0.00004055      0.01446596      0.00273417  ~
      6    -464.855972427581     -0.000002312989      0.00015503      0.00002575      0.00572356      0.00116673  ~
      7    -464.855972996031     -0.000000568450      0.00003301      0.00000878      0.00124997      0.00033990  ~
  --------------------------------------------------------------------------------------------------------------- ~

	Writing optimization data to binary file.
	Final energy is   -464.8559729960311
	Final (previous) structure:
	Cartesian Geometry (in Angstrom)
	    C     1.3815366597   1.5456367933   0.6753376003
	    C     0.7814343152   0.3303722780   0.0173308236
	    C    -0.6229722205  -0.0063917134   0.1725960049
	    C    -1.0621578632  -1.3311542532   0.2168906989
	    C    -2.4064320177  -1.6343269559   0.3652351750
	    C    -3.3432964202  -0.6165126644   0.4814968994
	    C    -2.9203837818   0.7058324206   0.4619170397
	    C    -1.5751839792   1.0048279047   0.3176284866
	    H    -1.2580390378   2.0344497615   0.3044138442
	    H    -3.6374885317   1.5031155644   0.5623173104
	    H    -4.3873519596  -0.8505144250   0.5985198849
	    H    -2.7207227423  -2.6637893454   0.4027606245
	    H    -0.3376809072  -2.1259561182   0.1679655588
	    C     1.6956271678  -0.2898685587  -0.7521050870
	    C     3.0235961676   0.4034051233  -0.6646746820
	    C     2.8815735569   1.2703127839   0.5847452716
	    H     3.1809130143   0.6870027081   1.4512069991
	    H     3.4855044913   2.1708876282   0.5583487487
	    H     3.8575297908  -0.2926300953  -0.6096841496
	    H     3.1769650119   1.0115123482  -1.5592716915
	    C     1.5019716226  -1.4203844611  -1.6952138321
	    H     0.4536823236  -1.6156954867  -1.8932060850
	    H     1.9963264885  -1.1987350622  -2.6392207403
	    H     1.9535271042  -2.3355801127  -1.3139569752
	    H     1.0357727822   1.6863655902   1.6955064844
	    H     1.1153739394   2.4450187554   0.1169685873
	Saving final (previous) structure.
	Cleaning optimization helper files.
			--------------------------
			 OPTKING Finished Execution 
			--------------------------

    Final optimized geometry and variables:
    Molecular point group: c1
    Full point group: C1

    Geometry (in Angstrom), charge = 0, multiplicity = 1:

    C            1.381536665141     1.545636799412     0.675337602982
    C            0.781434318311     0.330372279299     0.017330823699
    C           -0.622972222964    -0.006391713386     0.172596005583
    C           -1.062157867356    -1.331154258423     0.216890699765
    C           -2.406432027152    -1.634326962333     0.365235176484
    C           -3.343296433371    -0.616512666858     0.481496901251
    C           -2.920383793260     0.705832423336     0.461917041547
    C           -1.575183985345     1.004827908656     0.317628487878
    H           -1.258039042785     2.034449769542     0.304413845423
    H           -3.637488545959     1.503115570307     0.562317312653
    H           -4.387351976843    -0.850514428363     0.598519887252
    H           -2.720722752988    -2.663789355841     0.402760626058
    H           -0.337680908565    -2.125956126597     0.167965559470
    C            1.695627174457    -0.289868559819    -0.752105089907
    C            3.023596179470     0.403405124851    -0.664674684596
    C            2.881573568248     1.270312788922     0.584745273868
    H            3.180913026805     0.687002710840     1.451207004761
    H            3.485504505024     2.170887636764     0.558348750891
    H            3.857529805965    -0.292630096445    -0.609684151955
    H            3.176965024362     1.011512352159    -1.559271697585
    C            1.501971628521    -1.420384466719    -1.695213838809
    H            0.453682325431    -1.615695493007    -1.893206092438
    H            1.996326496307    -1.198735066953    -2.639220750653
    H            1.953527111870    -2.335580121838    -1.313956980319
    H            1.035772786253     1.686365596803     1.695506491070
    H            1.115373943815     2.445018765033     0.116968587790

	Removing binary optimization data file.
	Cleaning optimization helper files.


Properties will be evaluated at   0.000000,   0.000000,   0.000000 [a0]
OEProp: No title given, name of density matrix used for the following properties is 'DF-MP2 relaxed density'
  Mulliken Charges: (a.u.)
   Center  Symbol    Alpha    Beta     Spin     Total
       1     C     3.13548  3.13548  0.00000 -0.27096
       2     C     3.05148  3.05148  0.00000 -0.10295
       3     C     2.90379  2.90379  0.00000  0.19242
       4     C     3.08952  3.08952  0.00000 -0.17905
       5     C     3.07678  3.07678  0.00000 -0.15357
       6     C     3.08713  3.08713  0.00000 -0.17426
       7     C     3.07099  3.07099  0.00000 -0.14197
       8     C     3.09491  3.09491  0.00000 -0.18982
       9     H     0.42661  0.42661  0.00000  0.14677
      10     H     0.42462  0.42462  0.00000  0.15076
      11     H     0.42414  0.42414  0.00000  0.15173
      12     H     0.42409  0.42409  0.00000  0.15183
      13     H     0.41966  0.41966  0.00000  0.16068
      14     C     2.99057  2.99057  0.00000  0.01886
      15     C     3.12871  3.12871  0.00000 -0.25741
      16     C     3.12671  3.12671  0.00000 -0.25343
      17     H     0.43992  0.43992  0.00000  0.12016
      18     H     0.43516  0.43516  0.00000  0.12967
      19     H     0.43664  0.43664  0.00000  0.12673
      20     H     0.43965  0.43965  0.00000  0.12070
      21     C     3.20379  3.20379  0.00000 -0.40759
      22     H     0.43095  0.43095  0.00000  0.13810
      23     H     0.43518  0.43518  0.00000  0.12964
      24     H     0.43283  0.43283  0.00000  0.13434
      25     H     0.43234  0.43234  0.00000  0.13532
      26     H     0.43835  0.43835  0.00000  0.12330

   Total alpha = 43.00000, Total beta = 43.00000, Total charge = -0.00000

    Molecular point group: c1
    Full point group: C1

    Geometry (in Angstrom), charge = 0, multiplicity = 1:

       Center              X                  Y                   Z               Mass       
    ------------   -----------------  -----------------  -----------------  -----------------
         C            1.381536665141     1.545636799412     0.675337602982    12.000000000000
         C            0.781434318311     0.330372279299     0.017330823699    12.000000000000
         C           -0.622972222964    -0.006391713386     0.172596005583    12.000000000000
         C           -1.062157867356    -1.331154258423     0.216890699765    12.000000000000
         C           -2.406432027152    -1.634326962333     0.365235176484    12.000000000000
         C           -3.343296433371    -0.616512666858     0.481496901251    12.000000000000
         C           -2.920383793260     0.705832423336     0.461917041547    12.000000000000
         C           -1.575183985345     1.004827908656     0.317628487878    12.000000000000
         H           -1.258039042785     2.034449769542     0.304413845423     1.007825032230
         H           -3.637488545959     1.503115570307     0.562317312653     1.007825032230
         H           -4.387351976843    -0.850514428363     0.598519887252     1.007825032230
         H           -2.720722752988    -2.663789355841     0.402760626058     1.007825032230
         H           -0.337680908565    -2.125956126597     0.167965559470     1.007825032230
         C            1.695627174457    -0.289868559819    -0.752105089907    12.000000000000
         C            3.023596179470     0.403405124851    -0.664674684596    12.000000000000
         C            2.881573568248     1.270312788922     0.584745273868    12.000000000000
         H            3.180913026805     0.687002710840     1.451207004761     1.007825032230
         H            3.485504505024     2.170887636764     0.558348750891     1.007825032230
         H            3.857529805965    -0.292630096445    -0.609684151955     1.007825032230
         H            3.176965024362     1.011512352159    -1.559271697585     1.007825032230
         C            1.501971628521    -1.420384466719    -1.695213838809    12.000000000000
         H            0.453682325431    -1.615695493007    -1.893206092438     1.007825032230
         H            1.996326496307    -1.198735066953    -2.639220750653     1.007825032230
         H            1.953527111870    -2.335580121838    -1.313956980319     1.007825032230
         H            1.035772786253     1.686365596803     1.695506491070     1.007825032230
         H            1.115373943815     2.445018765033     0.116968587790     1.007825032230



  Variable Map:
  ----------------------------------------------------------------------------
  "CURRENT CORRELATION ENERGY"           =>      -2.140822092465
  "CURRENT DIPOLE X"                     =>       0.409539461331
  "CURRENT DIPOLE Y"                     =>      -0.038704890216
  "CURRENT DIPOLE Z"                     =>      -0.249412686869
  "CURRENT ENERGY"                       =>    -464.855972996031
  "CURRENT REFERENCE ENERGY"             =>    -462.715150903566
  "CUSTOM SCS-MP2 CORRELATION ENERGY"    =>      -2.126018757975
  "CUSTOM SCS-MP2 TOTAL ENERGY"          =>    -464.841169661541
  "HF TOTAL ENERGY"                      =>    -462.715150903566
  "MP2 CORRELATION ENERGY"               =>      -2.140822092465
  "MP2 DOUBLES ENERGY"                   =>      -2.140822092465
  "MP2 OPPOSITE-SPIN CORRELATION ENERGY" =>      -1.629705454407
  "MP2 SAME-SPIN CORRELATION ENERGY"     =>      -0.511116638058
  "MP2 SINGLES ENERGY"                   =>      -0.000000000000
  "MP2 TOTAL ENERGY"                     =>    -464.855972996031
  "NUCLEAR REPULSION ENERGY"             =>     658.981439243644
  "ONE-ELECTRON ENERGY"                  =>   -1932.544527037263
  "OPTIMIZATION ITERATIONS"              =>       7.000000000000
  "PCM POLARIZATION ENERGY"              =>       0.000000000000
  "PE ENERGY"                            =>       0.000000000000
  "SCF DIPOLE X"                         =>       0.409539461331
  "SCF DIPOLE Y"                         =>      -0.038704890216
  "SCF DIPOLE Z"                         =>      -0.249412686869
  "SCF ITERATION ENERGY"                 =>    -462.715150903566
  "SCF ITERATIONS"                       =>      11.000000000000
  "SCF TOTAL ENERGY"                     =>    -462.715150903566
  "SCS-MP2 CORRELATION ENERGY"           =>      -2.126018757975
  "SCS-MP2 TOTAL ENERGY"                 =>    -464.841169661541
  "TWO-ELECTRON ENERGY"                  =>     810.847936890052



    Psi4 stopped on: Saturday, 11 December 2021 06:53PM
    Psi4 wall time for execution: 1:05:25.10

*** Psi4 exiting successfully. Buy a developer a beer!
