
    -----------------------------------------------------------------------
          Psi4: An Open-Source Ab Initio Electronic Structure Package
                               Psi4 1.4 release

                         Git: Rev {HEAD} 9485035 


    D. G. A. Smith, L. A. Burns, A. C. Simmonett, R. M. Parrish,
    M. C. Schieber, R. Galvelis, P. Kraus, H. Kruse, R. Di Remigio,
    A. Alenaizan, A. M. James, S. Lehtola, J. P. Misiewicz, M. Scheurer,
    R. A. Shaw, J. B. Schriber, Y. Xie, Z. L. Glick, D. A. Sirianni,
    J. S. O'Brien, J. M. Waldrop, A. Kumar, E. G. Hohenstein,
    B. P. Pritchard, B. R. Brooks, H. F. Schaefer III, A. Yu. Sokolov,
    K. Patkowski, A. E. DePrince III, U. Bozkaya, R. A. King,
    F. A. Evangelista, J. M. Turney, T. D. Crawford, C. D. Sherrill,
    J. Chem. Phys. 152(18) 184108 (2020). https://doi.org/10.1063/5.0006002

                            Additional Code Authors
    E. T. Seidl, C. L. Janssen, E. F. Valeev, M. L. Leininger,
    J. F. Gonthier, R. M. Richard, H. R. McAlexander, M. Saitow, X. Wang,
    P. Verma, and M. H. Lechner

             Previous Authors, Complete List of Code Contributors,
                       and Citations for Specific Modules
    https://github.com/psi4/psi4/blob/master/codemeta.json
    https://github.com/psi4/psi4/graphs/contributors
    http://psicode.org/psi4manual/master/introduction.html#citing-psifour

    -----------------------------------------------------------------------


    Psi4 started on: Tuesday, 23 November 2021 10:05PM

    Process ID: 1602803
    Host:       skystd35.palmetto.clemson.edu
    PSIDATADIR: /home/maxbuskirk/.conda/envs/psifour/share/psi4
    Memory:     500.0 MiB
    Threads:    1
    
  ==> Input File <==

--------------------------------------------------------------------------
molecule mol {
0 1
 C     0.355130     0.111221    -1.467412
 C    -0.000000    -0.000000     0.000000
 C     0.828100     0.881905     0.953535
 C     2.091555     0.051810     1.254924
 C     2.370953    -0.722993    -0.049363
 C     0.983556    -0.988346    -0.633510
 C    -1.373576    -0.413221     0.414448
 C    -1.542792    -1.321567     1.480545
 C    -2.825059    -1.692334     1.911870
 C    -3.961673    -1.159299     1.279913
 C    -3.805653    -0.253936     0.218219
 C    -2.519836     0.117392    -0.208007
 H    -2.398432     0.829298    -1.030811
 H    -4.686419     0.165723    -0.277661
Cl    -5.553554    -1.622698     1.807905
 H    -2.939181    -2.402495     2.736730
 H    -0.656700    -1.746978     1.964470
 H     0.659437    -2.015061    -0.827996
 H    -0.405740    -0.188168    -2.193765
 H     0.996446     0.943276    -1.777222
 H     2.921789    -1.659184     0.134099
 H     2.979683    -0.115336    -0.742780
 H     1.856488    -0.672951     2.054626
 H     2.945544     0.661232     1.596113
 H     0.256631     1.122533     1.863868
 H     1.092347     1.837771     0.466059
}

set scf_type df
set basis cc-pVDZ
set reference rhf

mol.update_geometry()
mol.symmetrize(1e-3)

e, wfn = optimize('mp2', return_wfn=True)
oeprop(wfn, "MULLIKEN_CHARGES")
mol.print_out()
print_variables()
--------------------------------------------------------------------------

Scratch directory: /local_scratch/pbs.4067450.pbs02/
gradient() will perform analytic gradient computation.

*** tstart() called on skystd35.palmetto.clemson.edu
*** at Tue Nov 23 22:05:15 2021

   => Loading Basis Set <=

    Name: CC-PVDZ
    Role: ORBITAL
    Keyword: BASIS
    atoms 1-12         entry C          line   138 file /home/maxbuskirk/.conda/envs/psifour/share/psi4/basis/cc-pvdz.gbs 
    atoms 13-14, 16-26 entry H          line    22 file /home/maxbuskirk/.conda/envs/psifour/share/psi4/basis/cc-pvdz.gbs 
    atoms 15           entry CL         line   658 file /home/maxbuskirk/.conda/envs/psifour/share/psi4/basis/cc-pvdz.gbs 


         ---------------------------------------------------------
                                   SCF
               by Justin Turney, Rob Parrish, Andy Simmonett
                          and Daniel G. A. Smith
                              RHF Reference
                        1 Threads,    500 MiB Core
         ---------------------------------------------------------

  ==> Geometry <==

    Molecular point group: c1
    Full point group: C1

    Geometry (in Angstrom), charge = 0, multiplicity = 1:

       Center              X                  Y                   Z               Mass       
    ------------   -----------------  -----------------  -----------------  -----------------
         C            1.939706593143     0.760367789201    -2.139451782716    12.000000000000
         C            1.584576593143     0.649146789201    -0.672039782716    12.000000000000
         C            2.412676593143     1.531051789201     0.281495217284    12.000000000000
         C            3.676131593143     0.700956789201     0.582884217284    12.000000000000
         C            3.955529593143    -0.073846210799    -0.721402782716    12.000000000000
         C            2.568132593143    -0.339199210799    -1.305549782716    12.000000000000
         C            0.211000593143     0.235925789201    -0.257591782716    12.000000000000
         C            0.041784593143    -0.672420210799     0.808505217284    12.000000000000
         C           -1.240482406857    -1.043187210799     1.239830217284    12.000000000000
         C           -2.377096406857    -0.510152210799     0.607873217284    12.000000000000
         C           -2.221076406857     0.395210789201    -0.453820782716    12.000000000000
         C           -0.935259406857     0.766538789201    -0.880046782716    12.000000000000
         H           -0.813855406857     1.478444789201    -1.702850782716     1.007825032230
         H           -3.101842406857     0.814869789201    -0.949700782716     1.007825032230
         CL          -3.968977406857    -0.973551210799     1.135865217284    34.968852682000
         H           -1.354604406857    -1.753348210799     2.064690217284     1.007825032230
         H            0.927876593143    -1.097831210799     1.292430217284     1.007825032230
         H            2.244013593143    -1.365914210799    -1.500035782716     1.007825032230
         H            1.178836593143     0.460978789201    -2.865804782716     1.007825032230
         H            2.581022593143     1.592422789201    -2.449261782716     1.007825032230
         H            4.506365593143    -1.010037210799    -0.537940782716     1.007825032230
         H            4.564259593143     0.533810789201    -1.414819782716     1.007825032230
         H            3.441064593143    -0.023804210799     1.382586217284     1.007825032230
         H            4.530120593143     1.310378789201     0.924073217284     1.007825032230
         H            1.841207593143     1.771679789201     1.191828217284     1.007825032230
         H            2.676923593143     2.486917789201    -0.205980782716     1.007825032230

  Running in c1 symmetry.

  Rotational constants: A =      0.07215  B =      0.01068  C =      0.01008 [cm^-1]
  Rotational constants: A =   2163.05910  B =    320.20439  C =    302.21330 [MHz]
  Nuclear repulsion =  828.497759194213927

  Charge       = 0
  Multiplicity = 1
  Electrons    = 102
  Nalpha       = 51
  Nbeta        = 51

  ==> Algorithm <==

  SCF Algorithm Type is DF.
  DIIS enabled.
  MOM disabled.
  Fractional occupation disabled.
  Guess Type is SAD.
  Energy threshold   = 1.00e-10
  Density threshold  = 1.00e-10
  Integral threshold = 1.00e-12

  ==> Primary Basis <==

  Basis Set: CC-PVDZ
    Blend: CC-PVDZ
    Number of shells: 119
    Number of basis functions: 251
    Number of Cartesian functions: 264
    Spherical Harmonics?: true
    Max angular momentum: 2

   => Loading Basis Set <=

    Name: (CC-PVDZ AUX)
    Role: JKFIT
    Keyword: DF_BASIS_SCF
    atoms 1-12         entry C          line   121 file /home/maxbuskirk/.conda/envs/psifour/share/psi4/basis/cc-pvdz-jkfit.gbs 
    atoms 13-14, 16-26 entry H          line    51 file /home/maxbuskirk/.conda/envs/psifour/share/psi4/basis/cc-pvdz-jkfit.gbs 
    atoms 15           entry CL         line   667 file /home/maxbuskirk/.conda/envs/psifour/share/psi4/basis/cc-pvdz-jkfit.gbs 

  ==> Integral Setup <==

  ==> DiskDFJK: Density-Fitted J/K Matrices <==

    J tasked:                  Yes
    K tasked:                  Yes
    wK tasked:                  No
    OpenMP threads:              1
    Integrals threads:           1
    Memory [MiB]:              375
    Algorithm:                Core
    Integral Cache:           NONE
    Schwarz Cutoff:          1E-12
    Fitting Condition:       1E-10

   => Auxiliary Basis Set <=

  Basis Set: (CC-PVDZ AUX)
    Blend: CC-PVDZ-JKFIT
    Number of shells: 441
    Number of basis functions: 1251
    Number of Cartesian functions: 1427
    Spherical Harmonics?: true
    Max angular momentum: 3

  Minimum eigenvalue in the overlap matrix is 3.0810806743E-04.
  Reciprocal condition number of the overlap matrix is 4.4509494434E-05.
    Using symmetric orthogonalization.

  ==> Pre-Iterations <==

  SCF Guess: Superposition of Atomic Densities via on-the-fly atomic UHF (no occupation information).

   -------------------------
    Irrep   Nso     Nmo    
   -------------------------
     A        251     251 
   -------------------------
    Total     251     251
   -------------------------

  ==> Iterations <==

                           Total Energy        Delta E     RMS |[F,P]|

   @DF-RHF iter SAD:  -921.31134274074486   -9.21311e+02   0.00000e+00 
   @DF-RHF iter   1:  -921.24566228824187    6.56805e-02   2.32637e-03 DIIS
   @DF-RHF iter   2:  -921.44537983942519   -1.99718e-01   1.12986e-03 DIIS
   @DF-RHF iter   3:  -921.48747241420097   -4.20926e-02   2.98762e-04 DIIS
   @DF-RHF iter   4:  -921.49150266213553   -4.03025e-03   1.28385e-04 DIIS
   @DF-RHF iter   5:  -921.49211439218061   -6.11730e-04   2.27931e-05 DIIS
   @DF-RHF iter   6:  -921.49214920664838   -3.48145e-05   9.31312e-06 DIIS
   @DF-RHF iter   7:  -921.49215619372217   -6.98707e-06   3.94094e-06 DIIS
   @DF-RHF iter   8:  -921.49215841342016   -2.21970e-06   2.01678e-06 DIIS
   @DF-RHF iter   9:  -921.49215916457626   -7.51156e-07   7.56466e-07 DIIS
   @DF-RHF iter  10:  -921.49215926383181   -9.92555e-08   2.86897e-07 DIIS
   @DF-RHF iter  11:  -921.49215927435773   -1.05259e-08   1.07118e-07 DIIS
   @DF-RHF iter  12:  -921.49215927533010   -9.72364e-10   3.15660e-08 DIIS
   @DF-RHF iter  13:  -921.49215927541070   -8.06040e-11   9.21281e-09 DIIS
   @DF-RHF iter  14:  -921.49215927541593   -5.22959e-12   2.33279e-09 DIIS
   @DF-RHF iter  15:  -921.49215927541684   -9.09495e-13   7.67833e-10 DIIS
   @DF-RHF iter  16:  -921.49215927541627    5.68434e-13   3.98024e-10 DIIS
   @DF-RHF iter  17:  -921.49215927541547    7.95808e-13   1.95476e-10 DIIS
   @DF-RHF iter  18:  -921.49215927541604   -5.68434e-13   8.70879e-11 DIIS
  Energy and wave function converged.


  ==> Post-Iterations <==

    Orbital Energies [Eh]
    ---------------------

    Doubly Occupied:                                                      

       1A   -104.832154     2A    -11.305213     3A    -11.257395  
       4A    -11.256926     5A    -11.254935     6A    -11.251968  
       7A    -11.251249     8A    -11.244595     9A    -11.238149  
      10A    -11.237236    11A    -11.233271    12A    -11.232636  
      13A    -11.231336    14A    -10.559000    15A     -8.026660  
      16A     -8.023217    17A     -8.023113    18A     -1.192861  
      19A     -1.174879    20A     -1.112453    21A     -1.038010  
      22A     -1.023083    23A     -1.002014    24A     -0.953459  
      25A     -0.850188    26A     -0.835388    27A     -0.815557  
      28A     -0.778453    29A     -0.746605    30A     -0.698885  
      31A     -0.651818    32A     -0.646123    33A     -0.632930  
      34A     -0.623519    35A     -0.593016    36A     -0.579764  
      37A     -0.570680    38A     -0.568898    39A     -0.538426  
      40A     -0.529249    41A     -0.510731    42A     -0.487698  
      43A     -0.483628    44A     -0.475929    45A     -0.473134  
      46A     -0.455489    47A     -0.450167    48A     -0.412298  
      49A     -0.391631    50A     -0.345187    51A     -0.318370  

    Virtual:                                                              

      52A      0.117765    53A      0.122000    54A      0.169744  
      55A      0.187027    56A      0.195940    57A      0.204251  
      58A      0.225903    59A      0.230180    60A      0.240528  
      61A      0.248306    62A      0.250249    63A      0.253967  
      64A      0.259531    65A      0.276548    66A      0.295273  
      67A      0.298081    68A      0.330068    69A      0.337408  
      70A      0.347722    71A      0.364949    72A      0.383008  
      73A      0.402377    74A      0.409746    75A      0.435039  
      76A      0.448190    77A      0.473466    78A      0.489484  
      79A      0.498377    80A      0.513456    81A      0.564091  
      82A      0.598801    83A      0.617412    84A      0.624635  
      85A      0.633506    86A      0.644750    87A      0.653265  
      88A      0.660118    89A      0.674613    90A      0.687867  
      91A      0.699586    92A      0.709461    93A      0.712850  
      94A      0.715850    95A      0.721601    96A      0.731954  
      97A      0.734604    98A      0.737488    99A      0.751940  
     100A      0.776885   101A      0.777212   102A      0.784253  
     103A      0.799537   104A      0.819249   105A      0.825581  
     106A      0.843001   107A      0.853427   108A      0.860551  
     109A      0.865318   110A      0.871187   111A      0.877546  
     112A      0.879507   113A      0.885945   114A      0.889194  
     115A      0.896079   116A      0.902527   117A      0.903918  
     118A      0.908765   119A      0.917061   120A      0.918806  
     121A      0.934763   122A      0.938860   123A      0.945204  
     124A      0.964441   125A      0.968133   126A      0.982459  
     127A      0.988348   128A      0.995844   129A      1.020987  
     130A      1.043779   131A      1.074249   132A      1.122312  
     133A      1.130350   134A      1.136561   135A      1.148088  
     136A      1.151117   137A      1.189701   138A      1.207120  
     139A      1.217890   140A      1.231109   141A      1.257207  
     142A      1.268292   143A      1.289474   144A      1.293046  
     145A      1.311134   146A      1.334268   147A      1.358711  
     148A      1.376423   149A      1.383714   150A      1.411880  
     151A      1.441207   152A      1.454303   153A      1.468818  
     154A      1.478424   155A      1.482796   156A      1.485486  
     157A      1.518257   158A      1.559487   159A      1.597464  
     160A      1.605815   161A      1.639318   162A      1.650040  
     163A      1.691594   164A      1.701038   165A      1.718887  
     166A      1.734999   167A      1.747657   168A      1.772836  
     169A      1.782581   170A      1.799307   171A      1.802812  
     172A      1.814382   173A      1.824664   174A      1.843780  
     175A      1.861164   176A      1.870251   177A      1.877200  
     178A      1.895265   179A      1.899683   180A      1.904922  
     181A      1.916304   182A      1.923173   183A      1.927016  
     184A      1.940406   185A      1.947135   186A      1.953707  
     187A      1.969327   188A      1.972667   189A      1.989942  
     190A      2.001001   191A      2.013164   192A      2.026753  
     193A      2.032081   194A      2.036003   195A      2.046700  
     196A      2.050720   197A      2.069182   198A      2.076553  
     199A      2.094099   200A      2.108221   201A      2.116057  
     202A      2.130263   203A      2.146713   204A      2.183511  
     205A      2.192631   206A      2.203952   207A      2.225888  
     208A      2.239162   209A      2.243291   210A      2.255580  
     211A      2.260984   212A      2.284025   213A      2.289886  
     214A      2.319729   215A      2.350705   216A      2.368554  
     217A      2.380350   218A      2.405411   219A      2.412757  
     220A      2.436804   221A      2.444914   222A      2.451843  
     223A      2.466741   224A      2.477670   225A      2.531562  
     226A      2.556925   227A      2.590183   228A      2.604183  
     229A      2.628150   230A      2.649271   231A      2.678480  
     232A      2.716069   233A      2.744646   234A      2.765492  
     235A      2.772471   236A      2.780897   237A      2.795492  
     238A      2.836591   239A      2.856245   240A      2.909889  
     241A      2.912312   242A      2.932239   243A      2.983220  
     244A      2.996963   245A      3.004726   246A      3.038420  
     247A      3.076096   248A      3.139743   249A      3.222080  
     250A      3.257960   251A      3.755695  

    Final Occupation by Irrep:
              A 
    DOCC [    51 ]

  @DF-RHF Final Energy:  -921.49215927541604

   => Energetics <=

    Nuclear Repulsion Energy =            828.4977591942139270
    One-Electron Energy =               -2905.1406940041160851
    Two-Electron Energy =                1155.1507755344862289
    Total Energy =                       -921.4921592754160429

Computation Completed


Properties will be evaluated at   0.000000,   0.000000,   0.000000 [a0]

Properties computed using the SCF density matrix

  Nuclear Dipole Moment: [e a0]
     X:    25.4027      Y:     5.7647      Z:    -5.5123

  Electronic Dipole Moment: [e a0]
     X:   -24.5192      Y:    -5.5607      Z:     5.2824

  Dipole Moment: [e a0]
     X:     0.8834      Y:     0.2041      Z:    -0.2299     Total:     0.9354

  Dipole Moment: [D]
     X:     2.2455      Y:     0.5186      Z:    -0.5843     Total:     2.3775


*** tstop() called on skystd35.palmetto.clemson.edu at Tue Nov 23 22:05:36 2021
Module time:
	user time   =      19.97 seconds =       0.33 minutes
	system time =       0.56 seconds =       0.01 minutes
	total time  =         21 seconds =       0.35 minutes
Total time:
	user time   =      19.97 seconds =       0.33 minutes
	system time =       0.56 seconds =       0.01 minutes
	total time  =         21 seconds =       0.35 minutes

*** tstart() called on skystd35.palmetto.clemson.edu
*** at Tue Nov 23 22:05:36 2021


  //>>>>>>>>>>>>>>>>>>>>>>>>>>>>>>>>>>>//
  //               DFMP2               //
  //<<<<<<<<<<<<<<<<<<<<<<<<<<<<<<<<<<<//

   => Loading Basis Set <=

    Name: (CC-PVDZ AUX)
    Role: RIFIT
    Keyword: DF_BASIS_MP2
    atoms 1-12         entry C          line   159 file /home/maxbuskirk/.conda/envs/psifour/share/psi4/basis/cc-pvdz-ri.gbs 
    atoms 13-14, 16-26 entry H          line    19 file /home/maxbuskirk/.conda/envs/psifour/share/psi4/basis/cc-pvdz-ri.gbs 
    atoms 15           entry CL         line   649 file /home/maxbuskirk/.conda/envs/psifour/share/psi4/basis/cc-pvdz-ri.gbs 

	 --------------------------------------------------------
	                          DF-MP2                         
	      2nd-Order Density-Fitted Moller-Plesset Theory     
	              RMP2 Wavefunction,   1 Threads             
	                                                         
	        Rob Parrish, Justin Turney, Andy Simmonett,      
	           Ed Hohenstein, and C. David Sherrill          
	 --------------------------------------------------------

   => Auxiliary Basis Set <=

  Basis Set: (CC-PVDZ AUX)
    Blend: CC-PVDZ-RI
    Number of shells: 318
    Number of basis functions: 930
    Number of Cartesian functions: 1077
    Spherical Harmonics?: true
    Max angular momentum: 3

	 --------------------------------------------------------
	                 NBF =   251, NAUX =   930
	 --------------------------------------------------------
	   CLASS    FOCC     OCC    AOCC    AVIR     VIR    FVIR
	   PAIRS       0      51      51     200     200       0
	 --------------------------------------------------------


         ------------------------------------------------------------
                                     CPHF                           
                                  Rob Parrish                       
         ------------------------------------------------------------

  ==> Geometry <==

    Molecular point group: c1
    Full point group: C1

    Geometry (in Angstrom), charge = 0, multiplicity = 1:

       Center              X                  Y                   Z               Mass       
    ------------   -----------------  -----------------  -----------------  -----------------
         C            1.939706593143     0.760367789201    -2.139451782716    12.000000000000
         C            1.584576593143     0.649146789201    -0.672039782716    12.000000000000
         C            2.412676593143     1.531051789201     0.281495217284    12.000000000000
         C            3.676131593143     0.700956789201     0.582884217284    12.000000000000
         C            3.955529593143    -0.073846210799    -0.721402782716    12.000000000000
         C            2.568132593143    -0.339199210799    -1.305549782716    12.000000000000
         C            0.211000593143     0.235925789201    -0.257591782716    12.000000000000
         C            0.041784593143    -0.672420210799     0.808505217284    12.000000000000
         C           -1.240482406857    -1.043187210799     1.239830217284    12.000000000000
         C           -2.377096406857    -0.510152210799     0.607873217284    12.000000000000
         C           -2.221076406857     0.395210789201    -0.453820782716    12.000000000000
         C           -0.935259406857     0.766538789201    -0.880046782716    12.000000000000
         H           -0.813855406857     1.478444789201    -1.702850782716     1.007825032230
         H           -3.101842406857     0.814869789201    -0.949700782716     1.007825032230
         CL          -3.968977406857    -0.973551210799     1.135865217284    34.968852682000
         H           -1.354604406857    -1.753348210799     2.064690217284     1.007825032230
         H            0.927876593143    -1.097831210799     1.292430217284     1.007825032230
         H            2.244013593143    -1.365914210799    -1.500035782716     1.007825032230
         H            1.178836593143     0.460978789201    -2.865804782716     1.007825032230
         H            2.581022593143     1.592422789201    -2.449261782716     1.007825032230
         H            4.506365593143    -1.010037210799    -0.537940782716     1.007825032230
         H            4.564259593143     0.533810789201    -1.414819782716     1.007825032230
         H            3.441064593143    -0.023804210799     1.382586217284     1.007825032230
         H            4.530120593143     1.310378789201     0.924073217284     1.007825032230
         H            1.841207593143     1.771679789201     1.191828217284     1.007825032230
         H            2.676923593143     2.486917789201    -0.205980782716     1.007825032230

  Nuclear repulsion =  828.497759194213927
  Reference energy  = -921.492159275416043

  ==> Basis Set <==

  Basis Set: CC-PVDZ
    Blend: CC-PVDZ
    Number of shells: 119
    Number of basis functions: 251
    Number of Cartesian functions: 264
    Spherical Harmonics?: true
    Max angular momentum: 2

  ==> CGRSolver (by Rob Parrish) <==

   Number of roots    =         1
   Preconditioning    =    JACOBI
   Convergence cutoff =     1E-06
   Maximum iterations =       100

  ==> CPHFRHamiltonian (by Rob Parrish) <== 

  ==> DiskDFJK: Density-Fitted J/K Matrices <==

    J tasked:                  Yes
    K tasked:                  Yes
    wK tasked:                  No
    OpenMP threads:              1
    Integrals threads:           1
    Memory [MiB]:              375
    Algorithm:                Core
    Integral Cache:           NONE
    Schwarz Cutoff:          1E-12
    Fitting Condition:       1E-10

   => Auxiliary Basis Set <=

  Basis Set: (CC-PVDZ AUX)
    Blend: CC-PVDZ-JKFIT
    Number of shells: 441
    Number of basis functions: 1251
    Number of Cartesian functions: 1427
    Spherical Harmonics?: true
    Max angular momentum: 3

  ==> CPHF Iterations <==

  => Iterations <=

             Iter  Converged  Remaining    Residual
  CGR           1          0          1   8.697E-02
  CGR           2          0          1   1.622E-02
  CGR           3          0          1   9.262E-03
  CGR           4          0          1   4.486E-03
  CGR           5          0          1   2.172E-03
  CGR           6          0          1   8.143E-04
  CGR           7          0          1   2.538E-04
  CGR           8          0          1   6.893E-05
  CGR           9          0          1   2.483E-05
  CGR          10          0          1   8.253E-06
  CGR          11          0          1   2.924E-06
  CGR          12          0          1   1.381E-06
  CGR          13          1          0   5.861E-07

    CGRSolver converged.

  ==> DFCorrGrad: Density-Fitted Correlated Gradients <==

    OpenMP threads:              1
    Integrals threads:           1
    Memory [GiB]:            0.366
    Schwarz Cutoff:          0E+00
    Fitting Condition:       1E-10

   => Auxiliary Basis Set <=

  Basis Set: (CC-PVDZ AUX)
    Blend: CC-PVDZ-JKFIT
    Number of shells: 441
    Number of basis functions: 1251
    Number of Cartesian functions: 1427
    Spherical Harmonics?: true
    Max angular momentum: 3

	-----------------------------------------------------------
	 ==================> DF-MP2 Energies <==================== 
	-----------------------------------------------------------
	 Reference Energy          =    -921.4921592754160429 [Eh]
	 Singles Energy            =      -0.0000000000000000 [Eh]
	 Same-Spin Energy          =      -0.4727196900600592 [Eh]
	 Opposite-Spin Energy      =      -1.3179853464996545 [Eh]
	 Correlation Energy        =      -1.7907050365597137 [Eh]
	 Total Energy              =    -923.2828643119757999 [Eh]
	-----------------------------------------------------------
	 ================> DF-SCS-MP2 Energies <================== 
	-----------------------------------------------------------
	 SCS Same-Spin Scale       =       0.3333333333333333 [-]
	 SCS Opposite-Spin Scale   =       1.2000000000000000 [-]
	 SCS Same-Spin Energy      =      -0.1575732300200197 [Eh]
	 SCS Opposite-Spin Energy  =      -1.5815824157995853 [Eh]
	 SCS Correlation Energy    =      -1.7391556458196049 [Eh]
	 SCS Total Energy          =    -923.2313149212355938 [Eh]
	-----------------------------------------------------------


  -Total Gradient:
     Atom            X                  Y                   Z
    ------   -----------------  -----------------  -----------------
       1        0.000082477843     0.000097443605     0.000110881382
       2        0.000023390767    -0.000182837946    -0.000216455535
       3       -0.000004124657    -0.000112624799    -0.000147916204
       4       -0.000041666959     0.000017996371     0.000074208210
       5       -0.000036333827    -0.000019510405    -0.000110015151
       6        0.000048817963     0.000166838245     0.000101414794
       7       -0.002248757644    -0.000574861886     0.000773804109
       8        0.002903156998    -0.002031461210     0.002421182644
       9       -0.000509726459     0.003183706460    -0.003731433926
      10       -0.007232479934    -0.002162858459     0.002455478336
      11        0.003226799618    -0.002380728650     0.002831961176
      12       -0.000406152167     0.002777129556    -0.003260483667
      13        0.001054645364     0.000204296552    -0.000228540402
      14        0.000217326127     0.000834751851    -0.000992002230
      15        0.000613750203     0.000216886640    -0.000253031775
      16        0.001110492289    -0.000445822761     0.000554829843
      17        0.000966975207     0.000346754857    -0.000429109351
      18       -0.000002954194     0.000015400972     0.000086865011
      19       -0.000034850430     0.000045177923     0.000088038734
      20        0.000083031389     0.000011230433    -0.000056443394
      21        0.000018999120    -0.000054279781     0.000023447999
      22        0.000066133124     0.000023502758     0.000001611704
      23       -0.000033483668     0.000024934902    -0.000053487067
      24        0.000092422366     0.000043361052     0.000008023047
      25       -0.000032520210    -0.000088779037    -0.000038279856
      26        0.000074631824     0.000044352752    -0.000014548351


*** tstop() called on skystd35.palmetto.clemson.edu at Tue Nov 23 22:06:48 2021
Module time:
	user time   =      69.51 seconds =       1.16 minutes
	system time =       2.01 seconds =       0.03 minutes
	total time  =         72 seconds =       1.20 minutes
Total time:
	user time   =      89.49 seconds =       1.49 minutes
	system time =       2.57 seconds =       0.04 minutes
	total time  =         93 seconds =       1.55 minutes

			-----------------------------------------
			 OPTKING 2.0: for geometry optimizations 
			  - R.A. King,  Bethel University        
			-----------------------------------------

	Internal coordinates to be generated automatically.
	Detected frag 1 with atoms:  1 2 3 4 5 6 7 8 9 10 11 12 13 14 15 16 17 18 19 20
	 21 22 23 24 25 26
	---Fragment 1 Bond Connectivity---
	 1 : 2 6 19 20
	 2 : 1 3 6 7
	 3 : 2 4 25 26
	 4 : 3 5 23 24
	 5 : 4 6 21 22
	 6 : 1 2 5 18
	 7 : 2 8 12
	 8 : 7 9 17
	 9 : 8 10 16
	 10 : 9 11 15
	 11 : 10 12 14
	 12 : 7 11 13
	 13 : 12
	 14 : 11
	 15 : 10
	 16 : 9
	 17 : 8
	 18 : 6
	 19 : 1
	 20 : 1
	 21 : 5
	 22 : 5
	 23 : 4
	 24 : 4
	 25 : 3
	 26 : 3

	---Fragment 1 Geometry and Gradient---
	 C           3.6655142248        1.4368868762       -4.0429779280
	 C           2.9944157859        1.2267096468       -1.2699711347
	 C           4.5592979903        2.8932685655        0.5319488663
	 C           6.9468819122        1.3246163574        1.1014915335
	 C           7.4748676122       -0.1395491138       -1.3632536855
	 C           4.8530672549       -0.6409936104       -2.4671315325
	 C           0.3987333333        0.4458351275       -0.4867779215
	 C           0.0789614373       -1.2706900396        1.5278534317
	 C          -2.3441720124       -1.9713381260        2.3429395527
	 C          -4.4920611828       -0.9640479607        1.1487138997
	 C          -4.1972261127        0.7468401534       -0.8575969894
	 C          -1.7673841352        1.4485483761       -1.6630473969
	 H          -1.5379638247        2.7938557432       -3.2179216119
	 H          -5.8616326333        1.5398807295       -1.7946743805
	 CL         -7.5002802971       -1.8397451575        2.1464741761
	 H          -2.5598313373       -3.3133479210        3.9016990446
	 H           1.7534326393       -2.0746003204        2.4423391469
	 H           4.2405711128       -2.5812037693       -2.8346568077
	 H           2.2276783077        0.8711236612       -5.4155861684
	 H           4.8774258247        3.0092429475       -4.6284339789
	 H           8.5157967922       -1.9086937049       -1.0165607510
	 H           8.6252005965        1.0087561944       -2.6736219062
	 H           6.5026696611       -0.0449834390        2.6127092955
	 H           8.5606872363        2.4762570322        1.7462453005
	 H           3.4793780912        3.3479895836        2.2522289193
	 H           5.0586524498        4.6995935181       -0.3892472664
	             0.0000824778        0.0000974436        0.0001108814
	             0.0000233908       -0.0001828379       -0.0002164555
	            -0.0000041247       -0.0001126248       -0.0001479162
	            -0.0000416670        0.0000179964        0.0000742082
	            -0.0000363338       -0.0000195104       -0.0001100152
	             0.0000488180        0.0001668382        0.0001014148
	            -0.0022487576       -0.0005748619        0.0007738041
	             0.0029031570       -0.0020314612        0.0024211826
	            -0.0005097265        0.0031837065       -0.0037314339
	            -0.0072324799       -0.0021628585        0.0024554783
	             0.0032267996       -0.0023807286        0.0028319612
	            -0.0004061522        0.0027771296       -0.0032604837
	             0.0010546454        0.0002042966       -0.0002285404
	             0.0002173261        0.0008347519       -0.0009920022
	             0.0006137502        0.0002168866       -0.0002530318
	             0.0011104923       -0.0004458228        0.0005548298
	             0.0009669752        0.0003467549       -0.0004291094
	            -0.0000029542        0.0000154010        0.0000868650
	            -0.0000348504        0.0000451779        0.0000880387
	             0.0000830314        0.0000112304       -0.0000564434
	             0.0000189991       -0.0000542798        0.0000234480
	             0.0000661331        0.0000235028        0.0000016117
	            -0.0000334837        0.0000249349       -0.0000534871
	             0.0000924224        0.0000433611        0.0000080230
	            -0.0000325202       -0.0000887790       -0.0000382799
	             0.0000746318        0.0000443528       -0.0000145484

	Previous optimization step data not found.  Starting new optimization.

	---Fragment 1 Intrafragment Coordinates---
	 - Coordinate -           - BOHR/RAD -       - ANG/DEG -
	 R(1,2)           =         2.860789	       1.513864
	 R(1,6)           =         2.865512	       1.516364
	 R(1,19)          =         2.066764	       1.093684
	 R(1,20)          =         2.069732	       1.095255
	 R(2,3)           =         2.910875	       1.540368
	 R(2,6)           =         2.894148	       1.531517
	 R(2,7)           =         2.821476	       1.493061
	 R(3,4)           =         2.913006	       1.541497
	 R(3,25)          =         2.081433	       1.101447
	 R(3,26)          =         2.088245	       1.105052
	 R(4,5)           =         2.915050	       1.542578
	 R(4,23)          =         2.087321	       1.104562
	 R(4,24)          =         2.084790	       1.103224
	 R(5,6)           =         2.888569	       1.528565
	 R(5,21)          =         2.081731	       1.101604
	 R(5,22)          =         2.087806	       1.104820
	 R(6,18)          =         2.067521	       1.094085
	 R(7,8)           =         2.665981	       1.410776
	 R(7,12)          =         2.661035	       1.408159
	 R(8,9)           =         2.650820	       1.402754
	 R(8,17)          =         2.070365	       1.095590
	 R(9,10)          =         2.655981	       1.405485
	 R(9,16)          =         2.068147	       1.094416
	 R(10,11)         =         2.653177	       1.404001
	 R(10,15)         =         3.288123	       1.740000
	 R(11,12)         =         2.654294	       1.404592
	 R(11,14)         =         2.068158	       1.094422
	 R(12,13)         =         2.068845	       1.094786
	 B(1,2,3)         =         2.017351	     115.585685
	 B(1,2,6)         =         1.042344	      59.721936
	 B(1,2,7)         =         2.100422	     120.345328
	 B(1,6,2)         =         1.039528	      59.560564
	 B(1,6,5)         =         2.049282	     117.415187
	 B(1,6,18)        =         2.048738	     117.384025
	 B(2,1,6)         =         1.059720	      60.717500
	 B(2,1,19)        =         2.049292	     117.415782
	 B(2,1,20)        =         2.057096	     117.862942
	 B(2,3,4)         =         1.826944	     104.676198
	 B(2,3,25)        =         1.936680	     110.963570
	 B(2,3,26)        =         1.929130	     110.530986
	 B(2,6,5)         =         1.888930	     108.227717
	 B(2,6,18)        =         2.081600	     119.266883
	 B(2,7,8)         =         2.092441	     119.888038
	 B(2,7,12)        =         2.119852	     121.458574
	 B(3,2,6)         =         1.854886	     106.277162
	 B(3,2,7)         =         2.072817	     118.763664
	 B(3,4,5)         =         1.827213	     104.691617
	 B(3,4,23)        =         1.897014	     108.690913
	 B(3,4,24)        =         1.979545	     113.419580
	 B(4,3,25)        =         1.962002	     112.414409
	 B(4,3,26)        =         1.934839	     110.858094
	 B(4,5,6)         =         1.819262	     104.236043
	 B(4,5,21)        =         1.956931	     112.123910
	 B(4,5,22)        =         1.932871	     110.745342
	 B(5,4,23)        =         1.897723	     108.731493
	 B(5,4,24)        =         1.980944	     113.499740
	 B(5,6,18)        =         2.094079	     119.981893
	 B(6,1,19)        =         2.043221	     117.067911
	 B(6,1,20)        =         2.053042	     117.630648
	 B(6,2,7)         =         2.125903	     121.805252
	 B(6,5,21)        =         1.949769	     111.713517
	 B(6,5,22)        =         1.934481	     110.837597
	 B(7,8,9)         =         2.108523	     120.809467
	 B(7,8,17)        =         2.079202	     119.129487
	 B(7,12,11)       =         2.107639	     120.758819
	 B(7,12,13)       =         2.079425	     119.142292
	 B(8,7,12)        =         2.070330	     118.621159
	 B(8,9,10)        =         2.095249	     120.048921
	 B(8,9,16)        =         2.092759	     119.906259
	 B(9,8,17)        =         2.095393	     120.057181
	 B(9,10,11)       =         2.088291	     119.650243
	 B(9,10,15)       =         2.097186	     120.159919
	 B(10,9,16)       =         2.095155	     120.043517
	 B(10,11,12)      =         2.096327	     120.110679
	 B(10,11,14)      =         2.094932	     120.030779
	 B(11,10,15)      =         2.097704	     120.189614
	 B(11,12,13)      =         2.096116	     120.098614
	 B(12,11,14)      =         2.091924	     119.858405
	 B(19,1,20)       =         2.012474	     115.306264
	 B(21,5,22)       =         1.871758	     107.243849
	 B(23,4,24)       =         1.878938	     107.655190
	 B(25,3,26)       =         1.875161	     107.438837
	 D(1,2,3,4)       =        -1.487484	     -85.226572
	 D(1,2,3,25)      =         2.675187	     153.276932
	 D(1,2,3,26)      =         0.596675	      34.186976
	 D(1,2,6,5)       =         1.948453	     111.638142
	 D(1,2,6,18)      =        -1.856921	    -106.393716
	 D(1,2,7,8)       =         2.408854	     138.017151
	 D(1,2,7,12)      =        -0.769280	     -44.076485
	 D(1,6,2,3)       =        -1.928884	    -110.516925
	 D(1,6,2,7)       =         1.903190	     109.044759
	 D(1,6,5,4)       =         1.468895	      84.161501
	 D(1,6,5,21)      =        -2.697521	    -154.556588
	 D(1,6,5,22)      =        -0.611214	     -35.019998
	 D(2,1,6,5)       =        -1.674893	     -95.964306
	 D(2,1,6,18)      =         1.911561	     109.524357
	 D(2,3,4,5)       =         0.589407	      33.770540
	 D(2,3,4,23)      =        -1.436065	     -82.280465
	 D(2,3,4,24)      =         2.757968	     158.019943
	 D(2,6,1,19)      =        -1.882068	    -107.834530
	 D(2,6,1,20)      =         1.887309	     108.134828
	 D(2,6,5,4)       =         0.342659	      19.632931
	 D(2,6,5,21)      =         2.459428	     140.914841
	 D(2,6,5,22)      =        -1.737450	     -99.548568
	 D(2,7,8,9)       =         3.108309	     178.092997
	 D(2,7,8,17)      =        -0.045760	      -2.621861
	 D(2,7,12,11)     =        -3.110817	    -178.236678
	 D(2,7,12,13)     =         0.027453	       1.572949
	 D(3,2,1,6)       =         1.651177	      94.605460
	 D(3,2,1,19)      =        -2.759824	    -158.126276
	 D(3,2,1,20)      =        -0.229547	     -13.152074
	 D(3,2,6,5)       =         0.019569	       1.121217
	 D(3,2,6,18)      =         2.497380	     143.089359
	 D(3,2,7,8)       =        -1.201325	     -68.830845
	 D(3,2,7,12)      =         1.903727	     109.075519
	 D(3,4,5,6)       =        -0.573602	     -32.864999
	 D(3,4,5,21)      =        -2.685602	    -153.873654
	 D(3,4,5,22)      =         1.507600	      86.379143
	 D(4,3,2,6)       =        -0.375127	     -21.493186
	 D(4,3,2,7)       =         2.100956	     120.375901
	 D(4,5,6,18)      =        -2.129570	    -122.015351
	 D(5,4,3,25)      =         2.693170	     154.307289
	 D(5,4,3,26)      =        -1.490910	     -85.422842
	 D(5,6,1,19)      =         2.726225	     156.201164
	 D(5,6,1,20)      =         0.212416	      12.170522
	 D(5,6,2,7)       =        -2.431542	    -139.317099
	 D(6,1,2,7)       =        -1.944837	    -111.430967
	 D(6,2,1,19)      =         1.872184	     107.268264
	 D(6,2,1,20)      =        -1.880724	    -107.757534
	 D(6,2,3,25)      =        -2.495641	    -142.989682
	 D(6,2,3,26)      =         1.709033	      97.920361
	 D(6,2,7,8)       =         1.168456	      66.947624
	 D(6,2,7,12)      =        -2.009677	    -115.146011
	 D(6,5,4,23)      =         1.451379	      83.157872
	 D(6,5,4,24)      =        -2.741271	    -157.063259
	 D(7,2,1,19)      =        -0.072653	      -4.162703
	 D(7,2,1,20)      =         2.457624	     140.811498
	 D(7,2,3,25)      =        -0.019558	      -1.120595
	 D(7,2,3,26)      =        -2.098070	    -120.210552
	 D(7,2,6,18)      =         0.046269	       2.651043
	 D(7,8,9,10)      =         0.001304	       0.074700
	 D(7,8,9,16)      =         3.135653	     179.659684
	 D(7,12,11,10)    =         0.004887	       0.280010
	 D(7,12,11,14)    =        -3.139052	    -179.854428
	 D(8,7,12,11)     =        -0.005315	      -0.304531
	 D(8,7,12,13)     =         3.132955	     179.505096
	 D(8,9,10,11)     =        -0.001796	      -0.102888
	 D(8,9,10,15)     =         3.136800	     179.725376
	 D(9,8,7,12)      =         0.002225	       0.127485
	 D(9,10,11,12)    =        -0.001268	      -0.072650
	 D(9,10,11,14)    =        -3.140510	    -179.937978
	 D(10,9,8,17)     =        -3.127697	    -179.203838
	 D(10,11,12,13)   =        -3.133351	    -179.527802
	 D(11,10,9,16)    =        -3.136135	    -179.687298
	 D(12,7,8,17)     =         3.131341	     179.412627
	 D(12,11,10,15)   =        -3.139862	    -179.900862
	 D(13,12,11,14)   =         0.005895	       0.337760
	 D(14,11,10,15)   =         0.004081	       0.233810
	 D(15,10,9,16)    =         0.002460	       0.140965
	 D(16,9,8,17)     =         0.006652	       0.381147
	 D(18,6,1,19)     =         0.029493	       1.689827
	 D(18,6,1,20)     =        -2.484316	    -142.340815
	 D(18,6,5,21)     =        -0.012801	      -0.733441
	 D(18,6,5,22)     =         2.073506	     118.803150
	 D(21,5,4,23)     =        -0.660621	     -37.850783
	 D(21,5,4,24)     =         1.429915	      81.928087
	 D(22,5,4,23)     =        -2.750604	    -157.597986
	 D(22,5,4,24)     =        -0.660068	     -37.819116
	 D(23,4,3,25)     =         0.667698	      38.256283
	 D(23,4,3,26)     =         2.766803	     158.526152
	 D(24,4,3,25)     =        -1.421454	     -81.443309
	 D(24,4,3,26)     =         0.677651	      38.826560

	Current energy   :      -923.2828643120

	Generating empirical Hessian (Schlegel '84) for each fragment.
	Taking RFO optimization step.
	Going to follow RFO solution 1.
	Using RFO vector 1.
	Norm of target step-size    0.03933
	Projected energy change by RFO approximation:        -0.0003096126

	Back-transformation to cartesian coordinates...
	Successfully converged to displaced geometry.

	--- Internal Coordinate Step in ANG or DEG, aJ/ANG or AJ/DEG ---
	 ---------------------------------------------------------------------------
	   Coordinate                Previous        Force       Change         New 
	   ----------                --------       ------       ------       ------
	    1 R(1,2)          =      1.513864     0.000762     0.000169     1.514034
	    2 R(1,6)          =      1.516364     0.000096    -0.000044     1.516320
	    3 R(1,19)         =      1.093684     0.000384     0.000072     1.093756
	    4 R(1,20)         =      1.095255    -0.000602    -0.000113     1.095142
	    5 R(2,3)          =      1.540368     0.000949     0.000223     1.540592
	    6 R(2,6)          =      1.531517     0.000449     0.000194     1.531711
	    7 R(2,7)          =      1.493061    -0.002704    -0.000524     1.492537
	    8 R(3,4)          =      1.541497     0.000234     0.000027     1.541523
	    9 R(3,25)         =      1.101447     0.000281     0.000054     1.101501
	   10 R(3,26)         =      1.105052    -0.000516    -0.000100     1.104952
	   11 R(4,5)          =      1.542578     0.000045    -0.000030     1.542549
	   12 R(4,23)         =      1.104562     0.000395     0.000076     1.104639
	   13 R(4,24)         =      1.103224    -0.000807    -0.000155     1.103068
	   14 R(5,6)          =      1.528565    -0.000030     0.000008     1.528572
	   15 R(5,21)         =      1.101604    -0.000490    -0.000094     1.101510
	   16 R(5,22)         =      1.104820    -0.000398    -0.000077     1.104743
	   17 R(6,18)         =      1.094085     0.000239     0.000045     1.094129
	   18 R(7,8)          =      1.410776    -0.000238    -0.000062     1.410714
	   19 R(7,12)         =      1.408159    -0.000279    -0.000068     1.408092
	   20 R(8,9)          =      1.402754    -0.011528    -0.001638     1.401116
	   21 R(8,17)         =      1.095590    -0.003772    -0.000708     1.094881
	   22 R(9,10)         =      1.405485    -0.012815    -0.001812     1.403673
	   23 R(9,16)         =      1.094416    -0.004875    -0.000912     1.093504
	   24 R(10,11)        =      1.404001    -0.012720    -0.001789     1.402212
	   25 R(10,15)        =      1.740000     0.005735     0.001169     1.741169
	   26 R(11,12)        =      1.404592    -0.011602    -0.001660     1.402932
	   27 R(11,14)        =      1.094422    -0.004899    -0.000916     1.093506
	   28 R(12,13)        =      1.094786    -0.003473    -0.000650     1.094135
	   29 B(1,2,3)        =    115.585685     0.000006     0.045093   115.630779
	   30 B(1,2,6)        =     59.721936    -0.000002    -0.009778    59.712158
	   31 B(1,2,7)        =    120.345328    -0.000005    -0.053931   120.291396
	   32 B(1,6,2)        =     59.560564     0.000002     0.004033    59.564597
	   33 B(1,6,5)        =    117.415187     0.000000    -0.000817   117.414370
	   34 B(1,6,18)       =    117.384025    -0.000003    -0.041768   117.342256
	   35 B(2,1,6)        =     60.717500     0.000000     0.005745    60.723245
	   36 B(2,1,19)       =    117.415782     0.000005     0.062555   117.478337
	   37 B(2,1,20)       =    117.862942    -0.000004    -0.048734   117.814207
	   38 B(2,3,4)        =    104.676198    -0.000006    -0.025602   104.650596
	   39 B(2,3,25)       =    110.963570     0.000007     0.053125   111.016695
	   40 B(2,3,26)       =    110.530986    -0.000002    -0.030737   110.500249
	   41 B(2,6,5)        =    108.227717    -0.000006    -0.033707   108.194010
	   42 B(2,6,18)       =    119.266883     0.000003     0.055572   119.322455
	   43 B(2,7,8)        =    119.888038     0.000060     0.177989   120.066027
	   44 B(2,7,12)       =    121.458574     0.000046     0.137201   121.595775
	   45 B(3,2,6)        =    106.277162     0.000006     0.025352   106.302514
	   46 B(3,2,7)        =    118.763664    -0.000001     0.001305   118.764968
	   47 B(3,4,5)        =    104.691617     0.000002     0.003172   104.694789
	   48 B(3,4,23)       =    108.690913     0.000003     0.024670   108.715583
	   49 B(3,4,24)       =    113.419580    -0.000004    -0.021036   113.398544
	   50 B(4,3,25)       =    112.414409     0.000001     0.010715   112.425124
	   51 B(4,3,26)       =    110.858094     0.000004     0.018059   110.876153
	   52 B(4,5,6)        =    104.236043     0.000005     0.014948   104.250991
	   53 B(4,5,21)       =    112.123910    -0.000001     0.011868   112.135778
	   54 B(4,5,22)       =    110.745342    -0.000000     0.000043   110.745385
	   55 B(5,4,23)       =    108.731493    -0.000000     0.010459   108.741953
	   56 B(5,4,24)       =    113.499740     0.000000     0.002069   113.501809
	   57 B(5,6,18)       =    119.981893     0.000003     0.019729   120.001623
	   58 B(6,1,19)       =    117.067911    -0.000001    -0.038795   117.029116
	   59 B(6,1,20)       =    117.630648     0.000001     0.031704   117.662352
	   60 B(6,2,7)        =    121.805252    -0.000003    -0.003433   121.801818
	   61 B(6,5,21)       =    111.713517    -0.000001     0.007504   111.721021
	   62 B(6,5,22)       =    110.837597    -0.000003    -0.035297   110.802300
	   63 B(7,8,9)        =    120.809467     0.000116     0.402955   121.212422
	   64 B(7,8,17)       =    119.129487     0.000022     0.173987   119.303473
	   65 B(7,12,11)      =    120.758819     0.000117     0.407126   121.165946
	   66 B(7,12,13)      =    119.142292     0.000021     0.171339   119.313632
	   67 B(8,7,12)       =    118.621159    -0.000106    -0.316798   118.304361
	   68 B(8,9,10)       =    120.048921    -0.000210    -0.697764   119.351157
	   69 B(8,9,16)       =    119.906259     0.000198     0.784406   120.690665
	   70 B(9,8,17)       =    120.057181    -0.000138    -0.576705   119.480476
	   71 B(9,10,11)      =    119.650243     0.000294     0.906326   120.556569
	   72 B(9,10,15)      =    120.159919    -0.000154    -0.474647   119.685272
	   73 B(10,9,16)      =    120.043517     0.000012    -0.086678   119.956839
	   74 B(10,11,12)     =    120.110679    -0.000211    -0.701781   119.408898
	   75 B(10,11,14)     =    120.030779     0.000013    -0.082372   119.948407
	   76 B(11,10,15)     =    120.189614    -0.000140    -0.431694   119.757921
	   77 B(11,12,13)     =    120.098614    -0.000138    -0.578530   119.520084
	   78 B(12,11,14)     =    119.858405     0.000198     0.784092   120.642497
	   79 B(19,1,20)      =    115.306264    -0.000001    -0.006313   115.299951
	   80 B(21,5,22)      =    107.243849     0.000001     0.000203   107.244051
	   81 B(23,4,24)      =    107.655190    -0.000001    -0.016267   107.638923
	   82 B(25,3,26)      =    107.438837    -0.000003    -0.024923   107.413914
	   83 D(1,2,3,4)      =    -85.226572     0.000000     0.004386   -85.222186
	   84 D(1,2,3,25)     =    153.276932    -0.000000    -0.021649   153.255284
	   85 D(1,2,3,26)     =     34.186976     0.000000    -0.004724    34.182252
	   86 D(1,2,6,5)      =    111.638142     0.000001     0.016441   111.654583
	   87 D(1,2,6,18)     =   -106.393716     0.000001     0.074631  -106.319085
	   88 D(1,2,7,8)      =    138.017151    -0.000000    -0.069825   137.947326
	   89 D(1,2,7,12)     =    -44.076485    -0.000001    -0.128140   -44.204624
	   90 D(1,6,2,3)      =   -110.516925    -0.000001    -0.038442  -110.555367
	   91 D(1,6,2,7)      =    109.044759    -0.000001    -0.070154   108.974605
	   92 D(1,6,5,4)      =     84.161501    -0.000000     0.022989    84.184491
	   93 D(1,6,5,21)     =   -154.556588     0.000000     0.050598  -154.505990
	   94 D(1,6,5,22)     =    -35.019998    -0.000000     0.032067   -34.987931
	   95 D(2,1,6,5)      =    -95.964306     0.000002     0.039766   -95.924540
	   96 D(2,1,6,18)     =    109.524357     0.000001     0.086909   109.611266
	   97 D(2,3,4,5)      =     33.770540    -0.000001     0.008877    33.779417
	   98 D(2,3,4,23)     =    -82.280465    -0.000001    -0.016046   -82.296511
	   99 D(2,3,4,24)     =    158.019943    -0.000001     0.000817   158.020760
	  100 D(2,6,1,19)     =   -107.834530    -0.000001    -0.093596  -107.928126
	  101 D(2,6,1,20)     =    108.134828    -0.000001    -0.069838   108.064990
	  102 D(2,6,5,4)      =     19.632931     0.000000     0.032600    19.665531
	  103 D(2,6,5,21)     =    140.914841     0.000000     0.060208   140.975049
	  104 D(2,6,5,22)     =    -99.548568    -0.000000     0.041677   -99.506891
	  105 D(2,7,8,9)      =    178.092997    -0.000000    -0.048309   178.044688
	  106 D(2,7,8,17)     =     -2.621861    -0.000000    -0.030083    -2.651945
	  107 D(2,7,12,11)    =   -178.236678     0.000000     0.058519  -178.178160
	  108 D(2,7,12,13)    =      1.572949    -0.000000     0.036086     1.609035
	  109 D(3,2,1,6)      =     94.605460     0.000001     0.002432    94.607893
	  110 D(3,2,1,19)     =   -158.126276    -0.000000    -0.068823  -158.195099
	  111 D(3,2,1,20)     =    -13.152074    -0.000000    -0.058400   -13.210475
	  112 D(3,2,6,5)      =      1.121217    -0.000000    -0.022001     1.099216
	  113 D(3,2,6,18)     =    143.089359     0.000000     0.036189   143.125547
	  114 D(3,2,7,8)      =    -68.830845    -0.000000    -0.075590   -68.906435
	  115 D(3,2,7,12)     =    109.075519    -0.000001    -0.133904   108.941615
	  116 D(3,4,5,6)      =    -32.864999    -0.000000    -0.038592   -32.903591
	  117 D(3,4,5,21)     =   -153.873654    -0.000001    -0.063445  -153.937099
	  118 D(3,4,5,22)     =     86.379143    -0.000001    -0.071668    86.307475
	  119 D(4,3,2,6)      =    -21.493186     0.000000     0.007431   -21.485755
	  120 D(4,3,2,7)      =    120.375901     0.000000     0.035332   120.411233
	  121 D(4,5,6,18)     =   -122.015351    -0.000000    -0.041884  -122.057235
	  122 D(5,4,3,25)     =    154.307289     0.000001     0.062932   154.370220
	  123 D(5,4,3,26)     =    -85.422842     0.000000     0.051010   -85.371832
	  124 D(5,6,1,19)     =    156.201164     0.000000    -0.053830   156.147334
	  125 D(5,6,1,20)     =     12.170522     0.000000    -0.030072    12.140449
	  126 D(5,6,2,7)      =   -139.317099    -0.000000    -0.053713  -139.370812
	  127 D(6,1,2,7)      =   -111.430967     0.000001    -0.013344  -111.444312
	  128 D(6,2,1,19)     =    107.268264    -0.000001    -0.071256   107.197008
	  129 D(6,2,1,20)     =   -107.757534    -0.000001    -0.060833  -107.818367
	  130 D(6,2,3,25)     =   -142.989682     0.000000    -0.018603  -143.008286
	  131 D(6,2,3,26)     =     97.920361     0.000000    -0.001679    97.918683
	  132 D(6,2,7,8)      =     66.947624     0.000001    -0.031733    66.915892
	  133 D(6,2,7,12)     =   -115.146011     0.000000    -0.090048  -115.236059
	  134 D(6,5,4,23)     =     83.157872     0.000000    -0.003811    83.154061
	  135 D(6,5,4,24)     =   -157.063259     0.000000    -0.015783  -157.079041
	  136 D(7,2,1,19)     =     -4.162703    -0.000000    -0.084600    -4.247303
	  137 D(7,2,1,20)     =    140.811498    -0.000000    -0.074177   140.737321
	  138 D(7,2,3,25)     =     -1.120595     0.000000     0.009297    -1.111298
	  139 D(7,2,3,26)     =   -120.210552     0.000000     0.026222  -120.184329
	  140 D(7,2,6,18)     =      2.651043    -0.000000     0.004477     2.655520
	  141 D(7,8,9,10)     =      0.074700    -0.000000    -0.020924     0.053775
	  142 D(7,8,9,16)     =    179.659684    -0.000000    -0.027003   179.632681
	  143 D(7,12,11,10)   =      0.280010    -0.000000    -0.002812     0.277198
	  144 D(7,12,11,14)   =   -179.854428    -0.000000    -0.030275  -179.884703
	  145 D(8,7,12,11)    =     -0.304531     0.000000     0.011082    -0.293449
	  146 D(8,7,12,13)    =    179.505096     0.000000    -0.011350   179.493745
	  147 D(8,9,10,11)    =     -0.102888     0.000000     0.029590    -0.073297
	  148 D(8,9,10,15)    =    179.725376     0.000000     0.023467   179.748843
	  149 D(9,8,7,12)     =      0.127485    -0.000000    -0.000967     0.126518
	  150 D(9,10,11,12)   =     -0.072650    -0.000000    -0.016911    -0.089561
	  151 D(9,10,11,14)   =   -179.937978     0.000000     0.009177  -179.928802
	  152 D(10,9,8,17)    =   -179.203838    -0.000000    -0.044541  -179.248379
	  153 D(10,11,12,13)  =   -179.527802     0.000000     0.018239  -179.509563
	  154 D(11,10,9,16)   =   -179.687298     0.000000     0.031953  -179.655345
	  155 D(12,7,8,17)    =    179.412627    -0.000000     0.017259   179.429886
	  156 D(12,11,10,15)  =   -179.900862    -0.000000    -0.010711  -179.911573
	  157 D(13,12,11,14)  =      0.337760    -0.000000    -0.009224     0.328535
	  158 D(14,11,10,15)  =      0.233810     0.000000     0.015377     0.249186
	  159 D(15,10,9,16)   =      0.140965     0.000000     0.025830     0.166795
	  160 D(16,9,8,17)    =      0.381147    -0.000000    -0.050620     0.330526
	  161 D(18,6,1,19)    =      1.689827    -0.000000    -0.006687     1.683139
	  162 D(18,6,1,20)    =   -142.340815     0.000000     0.017071  -142.323745
	  163 D(18,6,5,21)    =     -0.733441     0.000000    -0.014276    -0.747717
	  164 D(18,6,5,22)    =    118.803150    -0.000000    -0.032807   118.770343
	  165 D(21,5,4,23)    =    -37.850783     0.000000    -0.028664   -37.879447
	  166 D(21,5,4,24)    =     81.928087    -0.000000    -0.040636    81.887451
	  167 D(22,5,4,23)    =   -157.597986     0.000000    -0.036887  -157.634873
	  168 D(22,5,4,24)    =    -37.819116    -0.000000    -0.048859   -37.867976
	  169 D(23,4,3,25)    =     38.256283     0.000000     0.038009    38.294292
	  170 D(23,4,3,26)    =    158.526152     0.000000     0.026087   158.552240
	  171 D(24,4,3,25)    =    -81.443309     0.000001     0.054872   -81.388437
	  172 D(24,4,3,26)    =     38.826560     0.000000     0.042950    38.869511
	 ---------------------------------------------------------------------------
	Successfully symmetrized geometry.

  ==> Convergence Check <==

  Measures of convergence in internal coordinates in au.
  Criteria marked as inactive (o), active & met (*), and active & unmet ( ).
  --------------------------------------------------------------------------------------------- ~
   Step     Total Energy     Delta E     MAX Force     RMS Force      MAX Disp      RMS Disp    ~
  --------------------------------------------------------------------------------------------- ~
    Convergence Criteria    1.00e-06 *    3.00e-04 *             o    1.20e-03 *             o  ~
  --------------------------------------------------------------------------------------------- ~
      1    -923.28286431   -9.23e+02      3.86e-03      6.66e-04 o    1.58e-02      3.00e-03 o  ~
  ---------------------------------------------------------------------------------------------

	Writing optimization data to binary file.
	Structure for next step:
	Cartesian Geometry (in Angstrom)
	    C     1.9409657481   0.7585004718  -2.1396421163
	    C     1.5859825336   0.6485041846  -0.6719276214
	    C     2.4133334197   1.5313122720   0.2817827787
	    C     3.6768666243   0.7014546997   0.5836330479
	    C     3.9569141115  -0.0733647981  -0.7204698966
	    C     2.5699069273  -0.3400986853  -1.3049337237
	    C     0.2126100982   0.2355244476  -0.2584525579
	    C     0.0383730501  -0.6730701473   0.8065409306
	    C    -1.2404351095  -1.0458837345   1.2410343920
	    C    -2.3683304138  -0.5057116614   0.6035679367
	    C    -2.2223800175   0.3997128274  -0.4571412263
	    C    -0.9351773125   0.7657279911  -0.8782834128
	    H    -0.8192009531   1.4782653147  -1.7004584710
	    H    -3.1079078950   0.8153296750  -0.9458716333
	   CL    -3.9616092252  -0.9680390337   1.1321364479
	    H    -1.3656063868  -1.7555081853   2.0635408838
	    H     0.9196015979  -1.1025920455   1.2940986549
	    H     2.2466914700  -1.3670221960  -1.5000727210
	    H     1.1812487308   0.4573020410  -2.8665615304
	    H     2.5811100471   1.5912794388  -2.4495307267
	    H     4.5088050569  -1.0088403788  -0.5370930905
	    H     4.5646587249   0.5348141550  -1.4141707404
	    H     3.4422235377  -0.0232310577   1.3836332070
	    H     4.5303209991   1.3113163457   0.9248717163
	    H     1.8419357205   1.7729206530   1.1919660291
	    H     2.6771342240   2.4868078995  -0.2064338814
			--------------------------
			 OPTKING Finished Execution 
			--------------------------

    Structure for next step:
    Molecular point group: c1
    Full point group: C1

    Geometry (in Angstrom), charge = 0, multiplicity = 1:

    C            1.938918643136     0.757399107644    -2.138698040923
    C            1.583935427274     0.647402820029    -0.670983540270
    C            2.411286316547     1.530210910937     0.282726863555
    C            3.674819526190     0.700353335348     0.584577134008
    C            3.954867014490    -0.074466165496    -0.719525815674
    C            2.567859824811    -0.341200053739    -1.303989645082
    C            0.210562986394     0.234423081445    -0.257508475114
    C            0.036325937625    -0.674171517055     0.807485017521
    C           -1.242482226946    -1.046985105749     1.241978480640
    C           -2.370377535751    -0.506813030449     0.604512022811
    C           -2.224427138850     0.398611461886    -0.456197144281
    C           -0.937224428758     0.764626627048    -0.877339332430
    H           -0.821248068946     1.477163953448    -1.699514393857
    H           -3.109955019792     0.814228311101    -0.944927553213
    CL          -3.963656353335    -0.969140404590     1.133080536176
    H           -1.367653504742    -1.756609559274     2.064484975695
    H            0.917554488940    -1.103693416933     1.295042743768
    H            2.244644366186    -1.368123568449    -1.499128643148
    H            1.179201622897     0.456200675746    -2.865617457918
    H            2.579062944633     1.590178077992    -2.448586652522
    H            4.506757961978    -1.009941749861    -0.536149008872
    H            4.562611630247     0.533712789992    -1.413226662194
    H            3.440176438653    -0.024332424866     1.384577296176
    H            4.528273904313     1.310214983767     0.925815803764
    H            1.839888615124     1.771819292851     1.192910117526
    H            2.675087121905     2.485706542146    -0.205489798385


Scratch directory: /local_scratch/pbs.4067450.pbs02/
gradient() will perform analytic gradient computation.

*** tstart() called on skystd35.palmetto.clemson.edu
*** at Tue Nov 23 22:06:48 2021

   => Loading Basis Set <=

    Name: CC-PVDZ
    Role: ORBITAL
    Keyword: BASIS
    atoms 1-12         entry C          line   138 file /home/maxbuskirk/.conda/envs/psifour/share/psi4/basis/cc-pvdz.gbs 
    atoms 13-14, 16-26 entry H          line    22 file /home/maxbuskirk/.conda/envs/psifour/share/psi4/basis/cc-pvdz.gbs 
    atoms 15           entry CL         line   658 file /home/maxbuskirk/.conda/envs/psifour/share/psi4/basis/cc-pvdz.gbs 


         ---------------------------------------------------------
                                   SCF
               by Justin Turney, Rob Parrish, Andy Simmonett
                          and Daniel G. A. Smith
                              RHF Reference
                        1 Threads,    500 MiB Core
         ---------------------------------------------------------

  ==> Geometry <==

    Molecular point group: c1
    Full point group: C1

    Geometry (in Angstrom), charge = 0, multiplicity = 1:

       Center              X                  Y                   Z               Mass       
    ------------   -----------------  -----------------  -----------------  -----------------
         C            1.938918643136     0.757399107644    -2.138698040923    12.000000000000
         C            1.583935427274     0.647402820029    -0.670983540270    12.000000000000
         C            2.411286316547     1.530210910937     0.282726863555    12.000000000000
         C            3.674819526190     0.700353335348     0.584577134008    12.000000000000
         C            3.954867014490    -0.074466165496    -0.719525815674    12.000000000000
         C            2.567859824811    -0.341200053739    -1.303989645082    12.000000000000
         C            0.210562986394     0.234423081445    -0.257508475114    12.000000000000
         C            0.036325937625    -0.674171517055     0.807485017521    12.000000000000
         C           -1.242482226946    -1.046985105749     1.241978480640    12.000000000000
         C           -2.370377535751    -0.506813030449     0.604512022811    12.000000000000
         C           -2.224427138850     0.398611461886    -0.456197144281    12.000000000000
         C           -0.937224428758     0.764626627048    -0.877339332430    12.000000000000
         H           -0.821248068946     1.477163953448    -1.699514393857     1.007825032230
         H           -3.109955019792     0.814228311101    -0.944927553213     1.007825032230
         CL          -3.963656353335    -0.969140404590     1.133080536176    34.968852682000
         H           -1.367653504742    -1.756609559274     2.064484975695     1.007825032230
         H            0.917554488940    -1.103693416933     1.295042743768     1.007825032230
         H            2.244644366186    -1.368123568449    -1.499128643148     1.007825032230
         H            1.179201622897     0.456200675746    -2.865617457918     1.007825032230
         H            2.579062944633     1.590178077992    -2.448586652522     1.007825032230
         H            4.506757961978    -1.009941749861    -0.536149008872     1.007825032230
         H            4.562611630247     0.533712789992    -1.413226662194     1.007825032230
         H            3.440176438653    -0.024332424866     1.384577296176     1.007825032230
         H            4.528273904313     1.310214983767     0.925815803764     1.007825032230
         H            1.839888615124     1.771819292851     1.192910117526     1.007825032230
         H            2.675087121905     2.485706542146    -0.205489798385     1.007825032230

  Running in c1 symmetry.

  Rotational constants: A =      0.07213  B =      0.01070  C =      0.01010 [cm^-1]
  Rotational constants: A =   2162.38402  B =    320.72961  C =    302.70037 [MHz]
  Nuclear repulsion =  828.848452782169488

  Charge       = 0
  Multiplicity = 1
  Electrons    = 102
  Nalpha       = 51
  Nbeta        = 51

  ==> Algorithm <==

  SCF Algorithm Type is DF.
  DIIS enabled.
  MOM disabled.
  Fractional occupation disabled.
  Guess Type is READ.
  Energy threshold   = 1.00e-10
  Density threshold  = 1.00e-10
  Integral threshold = 1.00e-12

  ==> Primary Basis <==

  Basis Set: CC-PVDZ
    Blend: CC-PVDZ
    Number of shells: 119
    Number of basis functions: 251
    Number of Cartesian functions: 264
    Spherical Harmonics?: true
    Max angular momentum: 2

   => Loading Basis Set <=

    Name: (CC-PVDZ AUX)
    Role: JKFIT
    Keyword: DF_BASIS_SCF
    atoms 1-12         entry C          line   121 file /home/maxbuskirk/.conda/envs/psifour/share/psi4/basis/cc-pvdz-jkfit.gbs 
    atoms 13-14, 16-26 entry H          line    51 file /home/maxbuskirk/.conda/envs/psifour/share/psi4/basis/cc-pvdz-jkfit.gbs 
    atoms 15           entry CL         line   667 file /home/maxbuskirk/.conda/envs/psifour/share/psi4/basis/cc-pvdz-jkfit.gbs 

   => Loading Basis Set <=

    Name: CC-PVDZ
    Role: ORBITAL
    Keyword: BASIS
    atoms 1-12         entry C          line   138 file /home/maxbuskirk/.conda/envs/psifour/share/psi4/basis/cc-pvdz.gbs 
    atoms 13-14, 16-26 entry H          line    22 file /home/maxbuskirk/.conda/envs/psifour/share/psi4/basis/cc-pvdz.gbs 
    atoms 15           entry CL         line   658 file /home/maxbuskirk/.conda/envs/psifour/share/psi4/basis/cc-pvdz.gbs 

  Reading orbitals from file /local_scratch/pbs.4067450.pbs02/rCl.mol.1602803.180.npy, no projection.

  ==> Integral Setup <==

  ==> DiskDFJK: Density-Fitted J/K Matrices <==

    J tasked:                  Yes
    K tasked:                  Yes
    wK tasked:                  No
    OpenMP threads:              1
    Integrals threads:           1
    Memory [MiB]:              375
    Algorithm:                Core
    Integral Cache:           NONE
    Schwarz Cutoff:          1E-12
    Fitting Condition:       1E-10

   => Auxiliary Basis Set <=

  Basis Set: (CC-PVDZ AUX)
    Blend: CC-PVDZ-JKFIT
    Number of shells: 441
    Number of basis functions: 1251
    Number of Cartesian functions: 1427
    Spherical Harmonics?: true
    Max angular momentum: 3

  Minimum eigenvalue in the overlap matrix is 3.0546381087E-04.
  Reciprocal condition number of the overlap matrix is 4.4136322394E-05.
    Using symmetric orthogonalization.

  ==> Pre-Iterations <==

  SCF Guess: Orbitals guess was supplied from a previous computation.

   -------------------------------------------------------
    Irrep   Nso     Nmo     Nalpha   Nbeta   Ndocc  Nsocc
   -------------------------------------------------------
     A        251     251      51      51      51       0
   -------------------------------------------------------
    Total     251     251      51      51      51       0
   -------------------------------------------------------

  ==> Iterations <==

                           Total Energy        Delta E     RMS |[F,P]|

   @DF-RHF iter   0:  -921.49679326600415   -9.21497e+02   7.71935e-05 
   @DF-RHF iter   1:  -921.49269917986135    4.09409e-03   1.36842e-05 DIIS
   @DF-RHF iter   2:  -921.49270693679887   -7.75694e-06   7.06110e-06 DIIS
   @DF-RHF iter   3:  -921.49270867304313   -1.73624e-06   1.92323e-06 DIIS
   @DF-RHF iter   4:  -921.49270909884444   -4.25801e-07   1.17913e-06 DIIS
   @DF-RHF iter   5:  -921.49270921713946   -1.18295e-07   5.69155e-07 DIIS
   @DF-RHF iter   6:  -921.49270927580528   -5.86658e-08   2.22635e-07 DIIS
   @DF-RHF iter   7:  -921.49270928433509   -8.52981e-09   7.20839e-08 DIIS
   @DF-RHF iter   8:  -921.49270928504120   -7.06109e-10   2.66839e-08 DIIS
   @DF-RHF iter   9:  -921.49270928510737   -6.61657e-11   7.54207e-09 DIIS
   @DF-RHF iter  10:  -921.49270928511169   -4.32010e-12   1.69308e-09 DIIS
   @DF-RHF iter  11:  -921.49270928510975    1.93268e-12   6.97286e-10 DIIS
   @DF-RHF iter  12:  -921.49270928511180   -2.04636e-12   1.79527e-10 DIIS
   @DF-RHF iter  13:  -921.49270928511010    1.70530e-12   8.41986e-11 DIIS
  Energy and wave function converged.


  ==> Post-Iterations <==

    Orbital Energies [Eh]
    ---------------------

    Doubly Occupied:                                                      

       1A   -104.830893     2A    -11.304661     3A    -11.256794  
       4A    -11.256330     5A    -11.254972     6A    -11.252006  
       7A    -11.251287     8A    -11.244850     9A    -11.238203  
      10A    -11.237302    11A    -11.233354    12A    -11.232634  
      13A    -11.231340    14A    -10.557817    15A     -8.025466  
      16A     -8.022039    17A     -8.021934    18A     -1.193142  
      19A     -1.175097    20A     -1.112158    21A     -1.038048  
      22A     -1.024165    23A     -1.001894    24A     -0.953394  
      25A     -0.850371    26A     -0.835713    27A     -0.815650  
      28A     -0.778536    29A     -0.747182    30A     -0.699110  
      31A     -0.651307    32A     -0.646201    33A     -0.633294  
      34A     -0.624386    35A     -0.594284    36A     -0.579759  
      37A     -0.570519    38A     -0.568945    39A     -0.538316  
      40A     -0.528345    41A     -0.511137    42A     -0.487910  
      43A     -0.483552    44A     -0.476002    45A     -0.473195  
      46A     -0.455326    47A     -0.449434    48A     -0.412418  
      49A     -0.391731    50A     -0.345828    51A     -0.318289  

    Virtual:                                                              

      52A      0.117914    53A      0.122196    54A      0.169827  
      55A      0.186961    56A      0.195934    57A      0.204228  
      58A      0.225805    59A      0.230091    60A      0.240466  
      61A      0.248901    62A      0.250344    63A      0.254004  
      64A      0.259467    65A      0.276424    66A      0.295134  
      67A      0.298023    68A      0.329595    69A      0.337437  
      70A      0.347608    71A      0.364658    72A      0.382836  
      73A      0.402396    74A      0.409495    75A      0.436417  
      76A      0.449060    77A      0.472852    78A      0.489629  
      79A      0.498154    80A      0.513456    81A      0.564641  
      82A      0.600756    83A      0.616786    84A      0.624876  
      85A      0.633750    86A      0.644525    87A      0.653610  
      88A      0.660199    89A      0.674342    90A      0.687838  
      91A      0.699023    92A      0.709129    93A      0.712461  
      94A      0.716325    95A      0.721793    96A      0.731879  
      97A      0.735328    98A      0.737187    99A      0.752402  
     100A      0.777262   101A      0.777292   102A      0.784420  
     103A      0.799450   104A      0.819175   105A      0.825945  
     106A      0.843378   107A      0.853266   108A      0.860512  
     109A      0.865383   110A      0.871607   111A      0.877623  
     112A      0.879020   113A      0.886484   114A      0.889523  
     115A      0.895721   116A      0.903047   117A      0.903880  
     118A      0.908603   119A      0.916637   120A      0.919294  
     121A      0.934713   122A      0.938398   123A      0.945189  
     124A      0.964397   125A      0.967889   126A      0.982448  
     127A      0.989079   128A      0.996340   129A      1.021796  
     130A      1.043604   131A      1.075727   132A      1.120752  
     133A      1.130386   134A      1.139265   135A      1.148446  
     136A      1.151961   137A      1.191685   138A      1.207061  
     139A      1.218461   140A      1.230333   141A      1.256892  
     142A      1.268311   143A      1.288788   144A      1.292966  
     145A      1.312883   146A      1.334121   147A      1.358131  
     148A      1.376854   149A      1.383306   150A      1.410840  
     151A      1.441194   152A      1.453521   153A      1.469191  
     154A      1.478640   155A      1.484409   156A      1.486327  
     157A      1.518499   158A      1.559937   159A      1.597564  
     160A      1.606260   161A      1.640975   162A      1.650068  
     163A      1.692725   164A      1.701510   165A      1.719254  
     166A      1.735419   167A      1.747307   168A      1.773298  
     169A      1.782876   170A      1.799274   171A      1.800676  
     172A      1.814065   173A      1.824676   174A      1.843527  
     175A      1.862246   176A      1.870937   177A      1.877491  
     178A      1.893212   179A      1.899725   180A      1.905287  
     181A      1.917325   182A      1.923669   183A      1.927309  
     184A      1.940595   185A      1.947145   186A      1.953852  
     187A      1.969546   188A      1.972732   189A      1.989162  
     190A      2.002090   191A      2.013015   192A      2.028378  
     193A      2.031682   194A      2.036490   195A      2.044974  
     196A      2.051192   197A      2.069972   198A      2.076290  
     199A      2.095731   200A      2.109272   201A      2.117282  
     202A      2.133251   203A      2.147476   204A      2.184184  
     205A      2.191684   206A      2.203933   207A      2.225742  
     208A      2.238615   209A      2.244491   210A      2.255905  
     211A      2.260407   212A      2.283587   213A      2.289650  
     214A      2.320266   215A      2.350715   216A      2.368822  
     217A      2.381428   218A      2.405672   219A      2.412655  
     220A      2.436858   221A      2.445513   222A      2.452403  
     223A      2.466822   224A      2.478016   225A      2.531908  
     226A      2.556885   227A      2.590719   228A      2.604442  
     229A      2.627870   230A      2.660943   231A      2.679595  
     232A      2.719265   233A      2.744685   234A      2.767106  
     235A      2.772740   236A      2.781003   237A      2.795763  
     238A      2.835603   239A      2.856305   240A      2.910150  
     241A      2.912168   242A      2.931040   243A      2.987262  
     244A      2.997516   245A      3.004702   246A      3.040545  
     247A      3.078458   248A      3.140398   249A      3.224415  
     250A      3.258106   251A      3.761331  

    Final Occupation by Irrep:
              A 
    DOCC [    51 ]

  @DF-RHF Final Energy:  -921.49270928511010

   => Energetics <=

    Nuclear Repulsion Energy =            828.8484527821694883
    One-Electron Energy =               -2905.8492859194557241
    Two-Electron Energy =                1155.5081238521763680
    Total Energy =                       -921.4927092851100952

Computation Completed


Properties will be evaluated at   0.000000,   0.000000,   0.000000 [a0]

Properties computed using the SCF density matrix

  Nuclear Dipole Moment: [e a0]
     X:    25.3538      Y:     5.7400      Z:    -5.4901

  Electronic Dipole Moment: [e a0]
     X:   -24.4642      Y:    -5.5351      Z:     5.2583

  Dipole Moment: [e a0]
     X:     0.8896      Y:     0.2049      Z:    -0.2317     Total:     0.9418

  Dipole Moment: [D]
     X:     2.2611      Y:     0.5208      Z:    -0.5890     Total:     2.3939


*** tstop() called on skystd35.palmetto.clemson.edu at Tue Nov 23 22:07:03 2021
Module time:
	user time   =      14.28 seconds =       0.24 minutes
	system time =       0.37 seconds =       0.01 minutes
	total time  =         15 seconds =       0.25 minutes
Total time:
	user time   =     103.83 seconds =       1.73 minutes
	system time =       2.96 seconds =       0.05 minutes
	total time  =        108 seconds =       1.80 minutes

*** tstart() called on skystd35.palmetto.clemson.edu
*** at Tue Nov 23 22:07:03 2021


  //>>>>>>>>>>>>>>>>>>>>>>>>>>>>>>>>>>>//
  //               DFMP2               //
  //<<<<<<<<<<<<<<<<<<<<<<<<<<<<<<<<<<<//

   => Loading Basis Set <=

    Name: (CC-PVDZ AUX)
    Role: RIFIT
    Keyword: DF_BASIS_MP2
    atoms 1-12         entry C          line   159 file /home/maxbuskirk/.conda/envs/psifour/share/psi4/basis/cc-pvdz-ri.gbs 
    atoms 13-14, 16-26 entry H          line    19 file /home/maxbuskirk/.conda/envs/psifour/share/psi4/basis/cc-pvdz-ri.gbs 
    atoms 15           entry CL         line   649 file /home/maxbuskirk/.conda/envs/psifour/share/psi4/basis/cc-pvdz-ri.gbs 

	 --------------------------------------------------------
	                          DF-MP2                         
	      2nd-Order Density-Fitted Moller-Plesset Theory     
	              RMP2 Wavefunction,   1 Threads             
	                                                         
	        Rob Parrish, Justin Turney, Andy Simmonett,      
	           Ed Hohenstein, and C. David Sherrill          
	 --------------------------------------------------------

   => Auxiliary Basis Set <=

  Basis Set: (CC-PVDZ AUX)
    Blend: CC-PVDZ-RI
    Number of shells: 318
    Number of basis functions: 930
    Number of Cartesian functions: 1077
    Spherical Harmonics?: true
    Max angular momentum: 3

	 --------------------------------------------------------
	                 NBF =   251, NAUX =   930
	 --------------------------------------------------------
	   CLASS    FOCC     OCC    AOCC    AVIR     VIR    FVIR
	   PAIRS       0      51      51     200     200       0
	 --------------------------------------------------------


         ------------------------------------------------------------
                                     CPHF                           
                                  Rob Parrish                       
         ------------------------------------------------------------

  ==> Geometry <==

    Molecular point group: c1
    Full point group: C1

    Geometry (in Angstrom), charge = 0, multiplicity = 1:

       Center              X                  Y                   Z               Mass       
    ------------   -----------------  -----------------  -----------------  -----------------
         C            1.938918643136     0.757399107644    -2.138698040923    12.000000000000
         C            1.583935427274     0.647402820029    -0.670983540270    12.000000000000
         C            2.411286316547     1.530210910937     0.282726863555    12.000000000000
         C            3.674819526190     0.700353335348     0.584577134008    12.000000000000
         C            3.954867014490    -0.074466165496    -0.719525815674    12.000000000000
         C            2.567859824811    -0.341200053739    -1.303989645082    12.000000000000
         C            0.210562986394     0.234423081445    -0.257508475114    12.000000000000
         C            0.036325937625    -0.674171517055     0.807485017521    12.000000000000
[...]
	   76 B(11,10,15)     =    119.641822    -0.000001    -0.005812   119.636010
	   77 B(11,12,13)     =    119.428151     0.000003     0.015543   119.443694
	   78 B(12,11,14)     =    120.925416    -0.000000    -0.000460   120.924956
	   79 B(19,1,20)      =    115.303779     0.000000     0.000760   115.304538
	   80 B(21,5,22)      =    107.247792     0.000000    -0.001038   107.246754
	   81 B(23,4,24)      =    107.645125     0.000000     0.000346   107.645471
	   82 B(25,3,26)      =    107.418907     0.000000     0.001425   107.420332
	   83 D(1,2,3,4)      =    -85.226778    -0.000000    -0.018892   -85.245670
	   84 D(1,2,3,25)     =    153.242521    -0.000000    -0.015880   153.226641
	   85 D(1,2,3,26)     =     34.169464    -0.000000    -0.018703    34.150761
	   86 D(1,2,6,5)      =    111.657818     0.000000     0.010168   111.667986
	   87 D(1,2,6,18)     =   -106.349088     0.000000    -0.000291  -106.349379
	   88 D(1,2,7,8)      =    137.864204    -0.000000    -0.041601   137.822603
	   89 D(1,2,7,12)     =    -44.287603    -0.000000    -0.036626   -44.324229
	   90 D(1,6,2,3)      =   -110.583013     0.000000     0.008477  -110.574536
	   91 D(1,6,2,7)      =    108.938636    -0.000000    -0.002446   108.936190
	   92 D(1,6,5,4)      =     84.223267    -0.000000    -0.016963    84.206305
	   93 D(1,6,5,21)     =   -154.463661    -0.000000    -0.011227  -154.474887
	   94 D(1,6,5,22)     =    -34.942891    -0.000000    -0.013262   -34.956153
	   95 D(2,1,6,5)      =    -95.906810     0.000000     0.013560   -95.893251
	   96 D(2,1,6,18)     =    109.583428     0.000000     0.001333   109.584762
	   97 D(2,3,4,5)      =     33.808890     0.000000     0.006517    33.815407
	   98 D(2,3,4,23)     =    -82.264104     0.000000     0.008046   -82.256058
	   99 D(2,3,4,24)     =    158.049203     0.000000     0.008271   158.057474
	  100 D(2,6,1,19)     =   -107.890539     0.000000     0.018987  -107.871552
	  101 D(2,6,1,20)     =    108.064350    -0.000000     0.002818   108.067168
	  102 D(2,6,5,4)      =     19.709030    -0.000000    -0.013270    19.695760
	  103 D(2,6,5,21)     =    141.022102     0.000000    -0.007534   141.014568
	  104 D(2,6,5,22)     =    -99.457128     0.000000    -0.009570   -99.466697
	  105 D(2,7,8,9)      =    178.047538     0.000000     0.001966   178.049504
	  106 D(2,7,8,17)     =     -2.640783     0.000000     0.000389    -2.640394
	  107 D(2,7,12,11)    =   -178.188249    -0.000000    -0.005068  -178.193317
	  108 D(2,7,12,13)    =      1.624002     0.000000     0.007110     1.631111
	  109 D(3,2,1,6)      =     94.601724     0.000000     0.011557    94.613282
	  110 D(3,2,1,19)     =   -158.160854     0.000000     0.031570  -158.129284
	  111 D(3,2,1,20)     =    -13.210691     0.000000     0.015728   -13.194963
	  112 D(3,2,6,5)      =      1.074805     0.000000     0.018645     1.093450
	  113 D(3,2,6,18)     =    143.067899     0.000000     0.008186   143.076085
	  114 D(3,2,7,8)      =    -68.962963    -0.000000    -0.050164   -69.013128
	  115 D(3,2,7,12)     =    108.885230    -0.000000    -0.045190   108.840040
	  116 D(3,4,5,6)      =    -32.950099     0.000000     0.001807   -32.948292
	  117 D(3,4,5,21)     =   -153.984154    -0.000000    -0.005361  -153.989514
	  118 D(3,4,5,22)     =     86.253992    -0.000000    -0.002145    86.251847
	  119 D(4,3,2,6)      =    -21.488294    -0.000000    -0.016019   -21.504313
	  120 D(4,3,2,7)      =    120.397828    -0.000000    -0.010578   120.387250
	  121 D(4,5,6,18)     =   -121.969105    -0.000000    -0.003831  -121.972936
	  122 D(5,4,3,25)     =    154.396612    -0.000000     0.001585   154.398197
	  123 D(5,4,3,26)     =    -85.330671    -0.000000     0.005029   -85.325642
	  124 D(5,6,1,19)     =    156.202650     0.000000     0.032547   156.235197
	  125 D(5,6,1,20)     =     12.157540     0.000000     0.016377    12.173917
	  126 D(5,6,2,7)      =   -139.403547    -0.000000     0.007722  -139.395824
	  127 D(6,1,2,7)      =   -111.427076     0.000000     0.005525  -111.421551
	  128 D(6,2,1,19)     =    107.237421     0.000000     0.020013   107.257434
	  129 D(6,2,1,20)     =   -107.812415    -0.000000     0.004170  -107.808245
	  130 D(6,2,3,25)     =   -143.018994    -0.000000    -0.013007  -143.032001
	  131 D(6,2,3,26)     =     97.907948     0.000000    -0.015830    97.892118
	  132 D(6,2,7,8)      =     66.863126    -0.000000    -0.037753    66.825373
	  133 D(6,2,7,12)     =   -115.288681     0.000000    -0.032778  -115.321459
	  134 D(6,5,4,23)     =     83.095494     0.000000     0.000595    83.096089
	  135 D(6,5,4,24)     =   -157.126396     0.000000     0.001699  -157.124698
	  136 D(7,2,1,19)     =     -4.189655     0.000000     0.025538    -4.164117
	  137 D(7,2,1,20)     =    140.760508     0.000000     0.009695   140.770204
	  138 D(7,2,3,25)     =     -1.132872     0.000000    -0.007567    -1.140439
	  139 D(7,2,3,26)     =   -120.205930     0.000000    -0.010390  -120.216320
	  140 D(7,2,6,18)     =      2.589547    -0.000000    -0.002737     2.586811
	  141 D(7,8,9,10)     =      0.059851     0.000000     0.003497     0.063348
	  142 D(7,8,9,16)     =    179.631555    -0.000000    -0.000461   179.631094
	  143 D(7,12,11,10)   =      0.283006     0.000000     0.002275     0.285281
	  144 D(7,12,11,14)   =   -179.872645     0.000000     0.007796  -179.864849
	  145 D(8,7,12,11)    =     -0.302194    -0.000000    -0.000520    -0.302714
	  146 D(8,7,12,13)    =    179.510057     0.000000     0.011658   179.521715
	  147 D(8,9,10,11)    =     -0.082117    -0.000000    -0.001645    -0.083762
	  148 D(8,9,10,15)    =    179.742299    -0.000000    -0.007160   179.735139
	  149 D(9,8,7,12)     =      0.128759    -0.000000    -0.002408     0.126351
	  150 D(9,10,11,12)   =     -0.086312    -0.000000    -0.001215    -0.087527
	  151 D(9,10,11,14)   =   -179.932335    -0.000000    -0.006670  -179.939006
	  152 D(10,9,8,17)    =   -179.251231     0.000000     0.005215  -179.246016
	  153 D(10,11,12,13)  =   -179.529029    -0.000000    -0.009879  -179.538908
	  154 D(11,10,9,16)   =   -179.658626     0.000000     0.002283  -179.656343
	  155 D(12,7,8,17)    =    179.440438    -0.000000    -0.003984   179.436454
	  156 D(12,11,10,15)  =   -179.910578     0.000000     0.004304  -179.906274
	  157 D(13,12,11,14)  =      0.315319    -0.000000    -0.004358     0.310962
	  158 D(14,11,10,15)  =      0.243398    -0.000000    -0.001152     0.242247
	  159 D(15,10,9,16)   =      0.165790    -0.000000    -0.003232     0.162558
	  160 D(16,9,8,17)    =      0.320473     0.000000     0.001257     0.321730
	  161 D(18,6,1,19)    =      1.692889     0.000000     0.020320     1.713210
	  162 D(18,6,1,20)    =   -142.352221    -0.000000     0.004151  -142.348070
	  163 D(18,6,5,21)    =     -0.656033     0.000000     0.001905    -0.654128
	  164 D(18,6,5,22)    =    118.864737     0.000000    -0.000131   118.864607
	  165 D(21,5,4,23)    =    -37.938561    -0.000000    -0.006573   -37.945134
	  166 D(21,5,4,24)    =     81.839549    -0.000000    -0.005469    81.834079
	  167 D(22,5,4,23)    =   -157.700415    -0.000000    -0.003358  -157.703773
	  168 D(22,5,4,24)    =    -37.922306    -0.000000    -0.002254   -37.924559
	  169 D(23,4,3,25)    =     38.323619    -0.000000     0.003114    38.326732
	  170 D(23,4,3,26)    =    158.596335    -0.000000     0.006558   158.602893
	  171 D(24,4,3,25)    =    -81.363075    -0.000000     0.003339   -81.359736
	  172 D(24,4,3,26)    =     38.909642     0.000000     0.006783    38.916425
	 ---------------------------------------------------------------------------
	Successfully symmetrized geometry.

  ==> Convergence Check <==

  Measures of convergence in internal coordinates in au.
  Criteria marked as inactive (o), active & met (*), and active & unmet ( ).
  ---------------------------------------------------------------------------------------------
   Step     Total Energy     Delta E     MAX Force     RMS Force      MAX Disp      RMS Disp   
  ---------------------------------------------------------------------------------------------
    Convergence Criteria    1.00e-06 *    3.00e-04 *             o    1.20e-03 *             o
  ---------------------------------------------------------------------------------------------
      4    -923.28307022   -4.28e-07 *    4.31e-05 *    8.78e-06 o    8.76e-04 *    1.97e-04 o  ~
  ---------------------------------------------------------------------------------------------


  **** Optimization is complete! (in 4 steps) ****

  ==> Optimization Summary <==

  Measures of convergence in internal coordinates in au.
  --------------------------------------------------------------------------------------------------------------- ~
   Step         Total Energy             Delta E       MAX Force       RMS Force        MAX Disp        RMS Disp  ~
  --------------------------------------------------------------------------------------------------------------- ~
      1    -923.282864311976   -923.282864311976      0.00386323      0.00066555      0.01581837      0.00299909  ~
      2    -923.283055161991     -0.000190850015      0.00155884      0.00017895      0.00603563      0.00103770  ~
      3    -923.283069794066     -0.000014632075      0.00030774      0.00003023      0.00124386      0.00032575  ~
      4    -923.283070221662     -0.000000427596      0.00004305      0.00000878      0.00087553      0.00019696  ~
  --------------------------------------------------------------------------------------------------------------- ~

	Writing optimization data to binary file.
	Final energy is   -923.2830702216623
	Final (previous) structure:
	Cartesian Geometry (in Angstrom)
	    C     1.9382753515   0.7581723302  -2.1381635488
	    C     1.5841222149   0.6479971994  -0.6702252368
	    C     2.4117655652   1.5301367801   0.2836591802
	    C     3.6750795138   0.6997384641   0.5847684233
	    C     3.9548389025  -0.0737766788  -0.7200142311
	    C     2.5675693943  -0.3405755179  -1.3040249471
	    C     0.2113440802   0.2348171707  -0.2570693519
	    C     0.0365734266  -0.6752606559   0.8063033566
	    C    -1.2420235638  -1.0495157877   1.2417560107
	    C    -2.3680917009  -0.5063937297   0.6033011462
	    C    -2.2249044090   0.4009779653  -0.4562521412
	    C    -0.9364013244   0.7662411036  -0.8756294078
	    H    -0.8204151952   1.4802105417  -1.6972701909
	    H    -3.1121028630   0.8153047466  -0.9416820479
	   CL    -3.9648854452  -0.9702596655   1.1324782324
	    H    -1.3712277461  -1.7597171368   2.0623270761
	    H     0.9179801406  -1.1061350979   1.2935756775
	    H     2.2440032793  -1.3674689966  -1.4985744103
	    H     1.1776213482   0.4577118756  -2.8643502066
	    H     2.5784187419   1.5909011383  -2.4482388764
	    H     4.5072207715  -1.0091774966  -0.5377830359
	    H     4.5619048350   0.5353425151  -1.4135017071
	    H     3.4400741097  -0.0256061832   1.3840334144
	    H     4.5287176211   1.3090442026   0.9266040777
	    H     1.8404876642   1.7715246716   1.1939360452
	    H     2.6757491900   2.4857135393  -0.2043196341
	Saving final (previous) structure.
	Cleaning optimization helper files.
			--------------------------
			 OPTKING Finished Execution 
			--------------------------

    Final optimized geometry and variables:
    Molecular point group: c1
    Full point group: C1

    Geometry (in Angstrom), charge = 0, multiplicity = 1:

    C            1.938275359154     0.758172333214    -2.138163557197
    C            1.584122221087     0.647997201936    -0.670225239479
    C            2.411765574728     1.530136786096     0.283659181361
    C            3.675079528274     0.699738466897     0.584768425647
    C            3.954838918071    -0.073776679095    -0.720014233914
    C            2.567569404376    -0.340575519211    -1.304024952210
    C            0.211344081025     0.234817171635    -0.257069352895
    C            0.036573426753    -0.675260658548     0.806303359789
    C           -1.242023568671    -1.049515791808     1.241756015596
    C           -2.368091710237    -0.506393731715     0.603301148588
    C           -2.224904417758     0.400977966855    -0.456252143018
    C           -0.936401328059     0.766241106626    -0.875629411286
    H           -0.820415198445     1.480210547480    -1.697270197543
    H           -3.112102875260     0.815304749789    -0.941682051597
    CL          -3.964885460810    -0.970259669323     1.132478236885
    H           -1.371227751452    -1.759717143711     2.062327084184
    H            0.917980144183    -1.106135102213     1.293575682599
    H            2.244003288082    -1.367469001986    -1.498574416223
    H            1.177621352830     0.457711877369    -2.864350217875
    H            2.578418752009     1.590901144532    -2.448238886006
    H            4.507220789209    -1.009177500522    -0.537783038046
    H            4.561904852918     0.535342517237    -1.413501712618
    H            3.440074123230    -0.025606183290     1.384033419804
    H            4.528717638911     1.309044207769     0.926604081355
    H            1.840487671409     1.771524678541     1.193936049889
    H            2.675749200514     2.485713549120    -0.204319634916

	Removing binary optimization data file.
	Cleaning optimization helper files.


Properties will be evaluated at   0.000000,   0.000000,   0.000000 [a0]
OEProp: No title given, name of density matrix used for the following properties is 'DF-MP2 relaxed density'
  Mulliken Charges: (a.u.)
   Center  Symbol    Alpha    Beta     Spin     Total
       1     C     2.97238  2.97238  0.00000  0.05525
       2     C     3.12419  3.12419  0.00000 -0.24838
       3     C     2.98037  2.98037  0.00000  0.03927
       4     C     3.02910  3.02910  0.00000 -0.05819
       5     C     3.00006  3.00006  0.00000 -0.00013
       6     C     3.05338  3.05338  0.00000 -0.10675
       7     C     3.02799  3.02799  0.00000 -0.05599
       8     C     2.98960  2.98960  0.00000  0.02081
       9     C     2.96200  2.96200  0.00000  0.07600
      10     C     3.08321  3.08321  0.00000 -0.16643
      11     C     2.96265  2.96265  0.00000  0.07471
      12     C     2.99410  2.99410  0.00000  0.01181
      13     H     0.49166  0.49166  0.00000  0.01667
      14     H     0.48565  0.48565  0.00000  0.02869
      15    CL     8.53399  8.53399  0.00000 -0.06799
      16     H     0.48595  0.48595  0.00000  0.02810
      17     H     0.49317  0.49317  0.00000  0.01367
      18     H     0.48738  0.48738  0.00000  0.02523
      19     H     0.47699  0.47699  0.00000  0.04601
      20     H     0.48088  0.48088  0.00000  0.03823
      21     H     0.47903  0.47903  0.00000  0.04194
      22     H     0.48079  0.48079  0.00000  0.03841
      23     H     0.48046  0.48046  0.00000  0.03907
      24     H     0.48413  0.48413  0.00000  0.03175
      25     H     0.47966  0.47966  0.00000  0.04068
      26     H     0.48123  0.48123  0.00000  0.03754

   Total alpha = 51.00000, Total beta = 51.00000, Total charge =  0.00000

    Molecular point group: c1
    Full point group: C1

    Geometry (in Angstrom), charge = 0, multiplicity = 1:

       Center              X                  Y                   Z               Mass       
    ------------   -----------------  -----------------  -----------------  -----------------
         C            1.938275359154     0.758172333214    -2.138163557197    12.000000000000
         C            1.584122221087     0.647997201936    -0.670225239479    12.000000000000
         C            2.411765574728     1.530136786096     0.283659181361    12.000000000000
         C            3.675079528274     0.699738466897     0.584768425647    12.000000000000
         C            3.954838918071    -0.073776679095    -0.720014233914    12.000000000000
         C            2.567569404376    -0.340575519211    -1.304024952210    12.000000000000
         C            0.211344081025     0.234817171635    -0.257069352895    12.000000000000
         C            0.036573426753    -0.675260658548     0.806303359789    12.000000000000
         C           -1.242023568671    -1.049515791808     1.241756015596    12.000000000000
         C           -2.368091710237    -0.506393731715     0.603301148588    12.000000000000
         C           -2.224904417758     0.400977966855    -0.456252143018    12.000000000000
         C           -0.936401328059     0.766241106626    -0.875629411286    12.000000000000
         H           -0.820415198445     1.480210547480    -1.697270197543     1.007825032230
         H           -3.112102875260     0.815304749789    -0.941682051597     1.007825032230
         CL          -3.964885460810    -0.970259669323     1.132478236885    34.968852682000
         H           -1.371227751452    -1.759717143711     2.062327084184     1.007825032230
         H            0.917980144183    -1.106135102213     1.293575682599     1.007825032230
         H            2.244003288082    -1.367469001986    -1.498574416223     1.007825032230
         H            1.177621352830     0.457711877369    -2.864350217875     1.007825032230
         H            2.578418752009     1.590901144532    -2.448238886006     1.007825032230
         H            4.507220789209    -1.009177500522    -0.537783038046     1.007825032230
         H            4.561904852918     0.535342517237    -1.413501712618     1.007825032230
         H            3.440074123230    -0.025606183290     1.384033419804     1.007825032230
         H            4.528717638911     1.309044207769     0.926604081355     1.007825032230
         H            1.840487671409     1.771524678541     1.193936049889     1.007825032230
         H            2.675749200514     2.485713549120    -0.204319634916     1.007825032230



  Variable Map:
  ----------------------------------------------------------------------------
  "CURRENT CORRELATION ENERGY"           =>      -1.790376927661
  "CURRENT DIPOLE X"                     =>       2.277837130093
  "CURRENT DIPOLE Y"                     =>       0.525817807201
  "CURRENT DIPOLE Z"                     =>      -0.593808925015
  "CURRENT ENERGY"                       =>    -923.283070221662
  "CURRENT REFERENCE ENERGY"             =>    -921.492693294001
  "CUSTOM SCS-MP2 CORRELATION ENERGY"    =>      -1.738819334014
  "CUSTOM SCS-MP2 TOTAL ENERGY"          =>    -923.231512628015
  "HF TOTAL ENERGY"                      =>    -921.492693294001
  "MP2 CORRELATION ENERGY"               =>      -1.790376927661
  "MP2 DOUBLES ENERGY"                   =>      -1.790376927661
  "MP2 OPPOSITE-SPIN CORRELATION ENERGY" =>      -1.317723490146
  "MP2 SAME-SPIN CORRELATION ENERGY"     =>      -0.472653437515
  "MP2 SINGLES ENERGY"                   =>      -0.000000000000
  "MP2 TOTAL ENERGY"                     =>    -923.283070221662
  "NUCLEAR REPULSION ENERGY"             =>     828.752402716292
  "ONE-ELECTRON ENERGY"                  =>   -2905.657313732061
  "OPTIMIZATION ITERATIONS"              =>       4.000000000000
  "PCM POLARIZATION ENERGY"              =>       0.000000000000
  "PE ENERGY"                            =>       0.000000000000
  "SCF DIPOLE X"                         =>       2.277837130093
  "SCF DIPOLE Y"                         =>       0.525817807201
  "SCF DIPOLE Z"                         =>      -0.593808925015
  "SCF ITERATION ENERGY"                 =>    -921.492693294001
  "SCF ITERATIONS"                       =>      12.000000000000
  "SCF TOTAL ENERGY"                     =>    -921.492693294001
  "SCS-MP2 CORRELATION ENERGY"           =>      -1.738819334014
  "SCS-MP2 TOTAL ENERGY"                 =>    -923.231512628015
  "TWO-ELECTRON ENERGY"                  =>    1155.412217721768



    Psi4 stopped on: Tuesday, 23 November 2021 10:11PM
    Psi4 wall time for execution: 0:05:54.30

*** Psi4 exiting successfully. Buy a developer a beer!
