
    -----------------------------------------------------------------------
          Psi4: An Open-Source Ab Initio Electronic Structure Package
                               Psi4 1.4 release

                         Git: Rev {HEAD} 9485035 


    D. G. A. Smith, L. A. Burns, A. C. Simmonett, R. M. Parrish,
    M. C. Schieber, R. Galvelis, P. Kraus, H. Kruse, R. Di Remigio,
    A. Alenaizan, A. M. James, S. Lehtola, J. P. Misiewicz, M. Scheurer,
    R. A. Shaw, J. B. Schriber, Y. Xie, Z. L. Glick, D. A. Sirianni,
    J. S. O'Brien, J. M. Waldrop, A. Kumar, E. G. Hohenstein,
    B. P. Pritchard, B. R. Brooks, H. F. Schaefer III, A. Yu. Sokolov,
    K. Patkowski, A. E. DePrince III, U. Bozkaya, R. A. King,
    F. A. Evangelista, J. M. Turney, T. D. Crawford, C. D. Sherrill,
    J. Chem. Phys. 152(18) 184108 (2020). https://doi.org/10.1063/5.0006002

                            Additional Code Authors
    E. T. Seidl, C. L. Janssen, E. F. Valeev, M. L. Leininger,
    J. F. Gonthier, R. M. Richard, H. R. McAlexander, M. Saitow, X. Wang,
    P. Verma, and M. H. Lechner

             Previous Authors, Complete List of Code Contributors,
                       and Citations for Specific Modules
    https://github.com/psi4/psi4/blob/master/codemeta.json
    https://github.com/psi4/psi4/graphs/contributors
    http://psicode.org/psi4manual/master/introduction.html#citing-psifour

    -----------------------------------------------------------------------


    Psi4 started on: Saturday, 11 December 2021 05:47PM

    Process ID: 566358
    Host:       skystd35.palmetto.clemson.edu
    PSIDATADIR: /home/maxbuskirk/.conda/envs/psifour/share/psi4
    Memory:     500.0 MiB
    Threads:    1
    
  ==> Input File <==

--------------------------------------------------------------------------
molecule mol {
0 1
 C     1.511290    -0.280966    -0.092593
 C    -0.000000     0.000000     0.000000
 C    -0.605968    -1.226439    -0.664954
 C     0.319060    -1.848819    -1.451355
 C     1.653820    -1.134973    -1.365322
 C    -2.027094    -1.583009    -0.507457
 C    -2.438238    -2.928025    -0.366876
 C    -3.794208    -3.253627    -0.211477
 C    -4.766046    -2.240264    -0.182231
 C    -4.369571    -0.897483    -0.299270
 C    -3.014139    -0.572542    -0.452922
 C     0.120138    -2.993149    -2.399423
 H    -2.715369     0.476287    -0.545440
 H    -5.118805    -0.100426    -0.268581
Cl    -6.447141    -2.643405     0.015246
 H    -4.091097    -4.301038    -0.099616
 H    -1.681648    -3.717845    -0.347819
 H     1.812305    -0.886836     0.778541
 H     2.127353     0.631886    -0.103726
 H     2.509857    -1.831293    -1.328975
 H     1.794964    -0.502471    -2.264944
 H    -0.944311    -3.224044    -2.552012
 H     0.568816    -2.749556    -3.378502
 H     0.625600    -3.906462    -2.037287
 H    -0.354002     0.144380     1.034324
 H    -0.267853     0.913064    -0.567140
}

set scf_type df
set basis cc-pVTZ
set reference rhf

mol.update_geometry()
mol.symmetrize(1e-3)

e, wfn = optimize('mp2', return_wfn=True)
oeprop(wfn, "MULLIKEN_CHARGES")
mol.print_out()
print_variables()
--------------------------------------------------------------------------

Scratch directory: /local_scratch/pbs.4129853.pbs02/
gradient() will perform analytic gradient computation.

*** tstart() called on skystd35.palmetto.clemson.edu
*** at Sat Dec 11 17:47:49 2021

   => Loading Basis Set <=

    Name: CC-PVTZ
    Role: ORBITAL
    Keyword: BASIS
    atoms 1-12         entry C          line   186 file /home/maxbuskirk/.conda/envs/psifour/share/psi4/basis/cc-pvtz.gbs 
    atoms 13-14, 16-26 entry H          line    23 file /home/maxbuskirk/.conda/envs/psifour/share/psi4/basis/cc-pvtz.gbs 
    atoms 15           entry CL         line   847 file /home/maxbuskirk/.conda/envs/psifour/share/psi4/basis/cc-pvtz.gbs 


         ---------------------------------------------------------
                                   SCF
               by Justin Turney, Rob Parrish, Andy Simmonett
                          and Daniel G. A. Smith
                              RHF Reference
                        1 Threads,    500 MiB Core
         ---------------------------------------------------------

  ==> Geometry <==

    Molecular point group: c1
    Full point group: C1

    Geometry (in Angstrom), charge = 0, multiplicity = 1:

       Center              X                  Y                   Z               Mass       
    ------------   -----------------  -----------------  -----------------  -----------------
         C            3.802945809143     1.484800783811     0.465358189183    12.000000000000
         C            2.291655809143     1.765766783811     0.557951189183    12.000000000000
         C            1.685687809143     0.539327783811    -0.107002810817    12.000000000000
         C            2.610715809143    -0.083052216189    -0.893403810817    12.000000000000
         C            3.945475809143     0.630793783811    -0.807370810817    12.000000000000
         C            0.264561809143     0.182757783811     0.050494189183    12.000000000000
         C           -0.146582190857    -1.162258216189     0.191075189183    12.000000000000
         C           -1.502552190857    -1.487860216189     0.346474189183    12.000000000000
         C           -2.474390190857    -0.474497216189     0.375720189183    12.000000000000
         C           -2.077915190857     0.868283783811     0.258681189183    12.000000000000
         C           -0.722483190857     1.193224783811     0.105029189183    12.000000000000
         C            2.411793809143    -1.227382216189    -1.841471810817    12.000000000000
         H           -0.423713190857     2.242053783811     0.012511189183     1.007825032230
         H           -2.827149190857     1.665340783811     0.289370189183     1.007825032230
         CL          -4.155485190857    -0.877638216189     0.573197189183    34.968852682000
         H           -1.799441190857    -2.535271216189     0.458335189183     1.007825032230
         H            0.610007809143    -1.952078216189     0.210132189183     1.007825032230
         H            4.103960809143     0.878930783811     1.336492189183     1.007825032230
         H            4.419008809143     2.397652783811     0.454225189183     1.007825032230
         H            4.801512809143    -0.065526216189    -0.771023810817     1.007825032230
         H            4.086619809143     1.263295783811    -1.706992810817     1.007825032230
         H            1.347344809143    -1.458277216189    -1.994060810817     1.007825032230
         H            2.860471809143    -0.983789216189    -2.820550810817     1.007825032230
         H            2.917255809143    -2.140695216189    -1.479335810817     1.007825032230
         H            1.937653809143     1.910146783811     1.592275189183     1.007825032230
         H            2.023802809143     2.678830783811    -0.009188810817     1.007825032230

  Running in c1 symmetry.

  Rotational constants: A =      0.06655  B =      0.01045  C =      0.00944 [cm^-1]
  Rotational constants: A =   1994.97437  B =    313.41822  C =    283.15217 [MHz]
  Nuclear repulsion =  812.981678357297255

  Charge       = 0
  Multiplicity = 1
  Electrons    = 102
  Nalpha       = 51
  Nbeta        = 51

  ==> Algorithm <==

  SCF Algorithm Type is DF.
  DIIS enabled.
  MOM disabled.
  Fractional occupation disabled.
  Guess Type is SAD.
  Energy threshold   = 1.00e-10
  Density threshold  = 1.00e-10
  Integral threshold = 1.00e-12

  ==> Primary Basis <==

  Basis Set: CC-PVTZ
    Blend: CC-PVTZ
    Number of shells: 210
    Number of basis functions: 576
    Number of Cartesian functions: 654
    Spherical Harmonics?: true
    Max angular momentum: 3

   => Loading Basis Set <=

    Name: (CC-PVTZ AUX)
    Role: JKFIT
    Keyword: DF_BASIS_SCF
    atoms 1-12         entry C          line   125 file /home/maxbuskirk/.conda/envs/psifour/share/psi4/basis/cc-pvtz-jkfit.gbs 
    atoms 13-14, 16-26 entry H          line    51 file /home/maxbuskirk/.conda/envs/psifour/share/psi4/basis/cc-pvtz-jkfit.gbs 
    atoms 15           entry CL         line   689 file /home/maxbuskirk/.conda/envs/psifour/share/psi4/basis/cc-pvtz-jkfit.gbs 

  ==> Integral Setup <==

  ==> DiskDFJK: Density-Fitted J/K Matrices <==

    J tasked:                  Yes
    K tasked:                  Yes
    wK tasked:                  No
    OpenMP threads:              1
    Integrals threads:           1
    Memory [MiB]:              375
    Algorithm:                Disk
    Integral Cache:           NONE
    Schwarz Cutoff:          1E-12
    Fitting Condition:       1E-10

   => Auxiliary Basis Set <=

  Basis Set: (CC-PVTZ AUX)
    Blend: CC-PVTZ-JKFIT
    Number of shells: 467
    Number of basis functions: 1459
    Number of Cartesian functions: 1752
    Spherical Harmonics?: true
    Max angular momentum: 4

  Minimum eigenvalue in the overlap matrix is 3.1910039900E-05.
  Reciprocal condition number of the overlap matrix is 3.5794875026E-06.
    Using symmetric orthogonalization.

  ==> Pre-Iterations <==

  SCF Guess: Superposition of Atomic Densities via on-the-fly atomic UHF (no occupation information).

   -------------------------
    Irrep   Nso     Nmo    
   -------------------------
     A        576     576 
   -------------------------
    Total     576     576
   -------------------------

  ==> Iterations <==

                           Total Energy        Delta E     RMS |[F,P]|

   @DF-RHF iter SAD:  -921.38735896458820   -9.21387e+02   0.00000e+00 
   @DF-RHF iter   1:  -921.31367036101915    7.36886e-02   1.21805e-03 DIIS
   @DF-RHF iter   2:  -921.57700823674577   -2.63338e-01   5.88345e-04 DIIS
   @DF-RHF iter   3:  -921.63740695148431   -6.03987e-02   1.42259e-04 DIIS
   @DF-RHF iter   4:  -921.64260333733023   -5.19639e-03   6.67797e-05 DIIS
   @DF-RHF iter   5:  -921.64349023533850   -8.86898e-04   1.45101e-05 DIIS
   @DF-RHF iter   6:  -921.64355430403225   -6.40687e-05   5.26702e-06 DIIS
   @DF-RHF iter   7:  -921.64356527567122   -1.09716e-05   2.00199e-06 DIIS
   @DF-RHF iter   8:  -921.64356789946044   -2.62379e-06   1.06338e-06 DIIS
   @DF-RHF iter   9:  -921.64356880743560   -9.07975e-07   4.91623e-07 DIIS
   @DF-RHF iter  10:  -921.64356903148769   -2.24052e-07   1.92468e-07 DIIS
   @DF-RHF iter  11:  -921.64356906487058   -3.33829e-08   7.47414e-08 DIIS
   @DF-RHF iter  12:  -921.64356906848582   -3.61524e-09   2.79927e-08 DIIS
   @DF-RHF iter  13:  -921.64356906883813   -3.52316e-10   8.58947e-09 DIIS
   @DF-RHF iter  14:  -921.64356906887349   -3.53566e-11   3.39980e-09 DIIS
   @DF-RHF iter  15:  -921.64356906888008   -6.59384e-12   1.43018e-09 DIIS
   @DF-RHF iter  16:  -921.64356906888031   -2.27374e-13   7.08605e-10 DIIS
   @DF-RHF iter  17:  -921.64356906888111   -7.95808e-13   2.46050e-10 DIIS
   @DF-RHF iter  18:  -921.64356906887792    3.18323e-12   1.04341e-10 DIIS
   @DF-RHF iter  19:  -921.64356906887906   -1.13687e-12   3.78369e-11 DIIS
  Energy and wave function converged.


  ==> Post-Iterations <==

    Orbital Energies [Eh]
    ---------------------

    Doubly Occupied:                                                      

       1A   -104.837313     2A    -11.302719     3A    -11.253942  
       4A    -11.251933     5A    -11.251814     6A    -11.247561  
       7A    -11.247262     8A    -11.238920     9A    -11.232358  
      10A    -11.229292    11A    -11.229085    12A    -11.228336  
      13A    -11.226097    14A    -10.562186    15A     -8.029084  
      16A     -8.027191    17A     -8.027161    18A     -1.183254  
      19A     -1.149609    20A     -1.109577    21A     -1.024129  
      22A     -1.017342    23A     -1.008587    24A     -0.941140  
      25A     -0.903773    26A     -0.841126    27A     -0.816929  
      28A     -0.784761    29A     -0.723768    30A     -0.660464  
      31A     -0.646203    32A     -0.644451    33A     -0.641516  
      34A     -0.617936    35A     -0.594184    36A     -0.576201  
      37A     -0.570963    38A     -0.547815    39A     -0.543093  
      40A     -0.536444    41A     -0.519105    42A     -0.503176  
      43A     -0.487297    44A     -0.483856    45A     -0.481666  
      46A     -0.468303    47A     -0.458940    48A     -0.451371  
      49A     -0.363030    50A     -0.346092    51A     -0.295495  

    Virtual:                                                              

      52A      0.098621    53A      0.113074    54A      0.130841  
      55A      0.150158    56A      0.152557    57A      0.167908  
      58A      0.177102    59A      0.181678    60A      0.183369  
      61A      0.205812    62A      0.207828    63A      0.216602  
      64A      0.220301    65A      0.232714    66A      0.236122  
      67A      0.238276    68A      0.261662    69A      0.293125  
      70A      0.300207    71A      0.313126    72A      0.323354  
      73A      0.327883    74A      0.347389    75A      0.352895  
      76A      0.367175    77A      0.384257    78A      0.394412  
      79A      0.411189    80A      0.413873    81A      0.419780  
      82A      0.430357    83A      0.434740    84A      0.438196  
      85A      0.448274    86A      0.461519    87A      0.466417  
      88A      0.474802    89A      0.486588    90A      0.490456  
      91A      0.496129    92A      0.502224    93A      0.514305  
      94A      0.525551    95A      0.528872    96A      0.547260  
      97A      0.554407    98A      0.556818    99A      0.564147  
     100A      0.568156   101A      0.571585   102A      0.576899  
     103A      0.587065   104A      0.595449   105A      0.600345  
     106A      0.604944   107A      0.610284   108A      0.611754  
     109A      0.618988   110A      0.625811   111A      0.634257  
     112A      0.638763   113A      0.645947   114A      0.648522  
     115A      0.655856   116A      0.656997   117A      0.664993  
     118A      0.672955   119A      0.675805   120A      0.679816  
     121A      0.686037   122A      0.694716   123A      0.706513  
     124A      0.713389   125A      0.725379   126A      0.733010  
     127A      0.738265   128A      0.755069   129A      0.757262  
     130A      0.763066   131A      0.779706   132A      0.801260  
     133A      0.805757   134A      0.817026   135A      0.832115  
     136A      0.836694   137A      0.857332   138A      0.867694  
     139A      0.872225   140A      0.886757   141A      0.905184  
     142A      0.923084   143A      0.926914   144A      0.932136  
     145A      0.950663   146A      0.954229   147A      0.964465  
     148A      0.983330   149A      0.990469   150A      1.002649  
     151A      1.006862   152A      1.009430   153A      1.013401  
     154A      1.021318   155A      1.041768   156A      1.054696  
     157A      1.062018   158A      1.063488   159A      1.075242  
     160A      1.085665   161A      1.095611   162A      1.111091  
     163A      1.119755   164A      1.134260   165A      1.156669  
     166A      1.167769   167A      1.169398   168A      1.179196  
     169A      1.183323   170A      1.192803   171A      1.204025  
     172A      1.212116   173A      1.219361   174A      1.233655  
     175A      1.238719   176A      1.251132   177A      1.267815  
     178A      1.281038   179A      1.285714   180A      1.291807  
     181A      1.297989   182A      1.307681   183A      1.317931  
     184A      1.327159   185A      1.335936   186A      1.350762  
     187A      1.355884   188A      1.370472   189A      1.378141  
     190A      1.393520   191A      1.399994   192A      1.408989  
     193A      1.410966   194A      1.414118   195A      1.440148  
     196A      1.444566   197A      1.450835   198A      1.457520  
     199A      1.466906   200A      1.481487   201A      1.494255  
     202A      1.499368   203A      1.504151   204A      1.512450  
     205A      1.528542   206A      1.530885   207A      1.536540  
     208A      1.544558   209A      1.554892   210A      1.555673  
     211A      1.567794   212A      1.572268   213A      1.594371  
     214A      1.602995   215A      1.604453   216A      1.616384  
     217A      1.626940   218A      1.632743   219A      1.648281  
     220A      1.660840   221A      1.679458   222A      1.683790  
     223A      1.689036   224A      1.709552   225A      1.730442  
     226A      1.732863   227A      1.741838   228A      1.752868  
     229A      1.764401   230A      1.773212   231A      1.794763  
     232A      1.800434   233A      1.813638   234A      1.831733  
     235A      1.847047   236A      1.877290   237A      1.896769  
     238A      1.933871   239A      1.936047   240A      1.964406  
     241A      1.973973   242A      2.002981   243A      2.008317  
     244A      2.078043   245A      2.127944   246A      2.168514  
     247A      2.184297   248A      2.227194   249A      2.251997  
     250A      2.257923   251A      2.278507   252A      2.323504  
     253A      2.343632   254A      2.372629   255A      2.386507  
     256A      2.396820   257A      2.404771   258A      2.419455  
     259A      2.428686   260A      2.442030   261A      2.461576  
     262A      2.475291   263A      2.483287   264A      2.489724  
     265A      2.512276   266A      2.535380   267A      2.582142  
     268A      2.584586   269A      2.609506   270A      2.611410  
     271A      2.619830   272A      2.634045   273A      2.645388  
     274A      2.652893   275A      2.663403   276A      2.667365  
     277A      2.690075   278A      2.693415   279A      2.700566  
     280A      2.727099   281A      2.738281   282A      2.751969  
     283A      2.753751   284A      2.770401   285A      2.786249  
     286A      2.790605   287A      2.804633   288A      2.804864  
     289A      2.819996   290A      2.824279   291A      2.836627  
     292A      2.840701   293A      2.848440   294A      2.861606  
     295A      2.872854   296A      2.880463   297A      2.888415  
     298A      2.893647   299A      2.905677   300A      2.921152  
     301A      2.939060   302A      2.948596   303A      2.953736  
     304A      2.958527   305A      2.965457   306A      2.993031  
     307A      2.997450   308A      3.000356   309A      3.014730  
     310A      3.021392   311A      3.039847   312A      3.045697  
     313A      3.059815   314A      3.073599   315A      3.077177  
     316A      3.083454   317A      3.106874   318A      3.114931  
     319A      3.129092   320A      3.131663   321A      3.155216  
     322A      3.164529   323A      3.170935   324A      3.176022  
     325A      3.188409   326A      3.220129   327A      3.224046  
     328A      3.232637   329A      3.243456   330A      3.249079  
     331A      3.250742   332A      3.263085   333A      3.270727  
     334A      3.289321   335A      3.290555   336A      3.304586  
     337A      3.317673   338A      3.323426   339A      3.337926  
     340A      3.339166   341A      3.348420   342A      3.356638  
     343A      3.366765   344A      3.369871   345A      3.372366  
     346A      3.381336   347A      3.385832   348A      3.388992  
     349A      3.399359   350A      3.405825   351A      3.412155  
     352A      3.418100   353A      3.423844   354A      3.435101  
     355A      3.441207   356A      3.445637   357A      3.450139  
     358A      3.452551   359A      3.462985   360A      3.474441  
     361A      3.496572   362A      3.497958   363A      3.508632  
     364A      3.511156   365A      3.523254   366A      3.536528  
     367A      3.543387   368A      3.550945   369A      3.555396  
     370A      3.558014   371A      3.572215   372A      3.582845  
     373A      3.585621   374A      3.608572   375A      3.626987  
     376A      3.635328   377A      3.645466   378A      3.646583  
     379A      3.654576   380A      3.661165   381A      3.667150  
     382A      3.673558   383A      3.688068   384A      3.706943  
     385A      3.710560   386A      3.729721   387A      3.733670  
     388A      3.735091   389A      3.745019   390A      3.747461  
     391A      3.769648   392A      3.778798   393A      3.781115  
     394A      3.783787   395A      3.813133   396A      3.818085  
     397A      3.833155   398A      3.841658   399A      3.849368  
     400A      3.851999   401A      3.859781   402A      3.873852  
     403A      3.888752   404A      3.902025   405A      3.917441  
     406A      3.939267   407A      3.950682   408A      3.958182  
     409A      3.975569   410A      3.984817   411A      3.987733  
     412A      3.992488   413A      4.008771   414A      4.016658  
     415A      4.028738   416A      4.036733   417A      4.040364  
     418A      4.057235   419A      4.074928   420A      4.082021  
     421A      4.092640   422A      4.100886   423A      4.104616  
     424A      4.112409   425A      4.132175   426A      4.135502  
     427A      4.148153   428A      4.153105   429A      4.158872  
     430A      4.168510   431A      4.185859   432A      4.188445  
     433A      4.192856   434A      4.214415   435A      4.222983  
     436A      4.230366   437A      4.240587   438A      4.258820  
     439A      4.269562   440A      4.283929   441A      4.290930  
     442A      4.296591   443A      4.312064   444A      4.317824  
     445A      4.330739   446A      4.340557   447A      4.344561  
     448A      4.362744   449A      4.369806   450A      4.380097  
     451A      4.387369   452A      4.400533   453A      4.414238  
     454A      4.423341   455A      4.436284   456A      4.438060  
     457A      4.452187   458A      4.462446   459A      4.481277  
     460A      4.485938   461A      4.494144   462A      4.505345  
     463A      4.522289   464A      4.526125   465A      4.543478  
     466A      4.551999   467A      4.564903   468A      4.569688  
     469A      4.586352   470A      4.593149   471A      4.606176  
     472A      4.611537   473A      4.626909   474A      4.629844  
     475A      4.652843   476A      4.656779   477A      4.666683  
     478A      4.676008   479A      4.686648   480A      4.698626  
     481A      4.704143   482A      4.716624   483A      4.745183  
     484A      4.754331   485A      4.757559   486A      4.767744  
     487A      4.786240   488A      4.805179   489A      4.814725  
     490A      4.842383   491A      4.852860   492A      4.876890  
     493A      4.900725   494A      4.938127   495A      4.958881  
     496A      4.993683   497A      4.999423   498A      5.013186  
     499A      5.027695   500A      5.061861   501A      5.063432  
     502A      5.072433   503A      5.089708   504A      5.112786  
     505A      5.121006   506A      5.129841   507A      5.144763  
     508A      5.152336   509A      5.191737   510A      5.210005  
     511A      5.224157   512A      5.255690   513A      5.273822  
     514A      5.283150   515A      5.290536   516A      5.296872  
     517A      5.326028   518A      5.331841   519A      5.354841  
     520A      5.358322   521A      5.373134   522A      5.399787  
     523A      5.417978   524A      5.433759   525A      5.445887  
     526A      5.454207   527A      5.465536   528A      5.478752  
     529A      5.536852   530A      5.552709   531A      5.563941  
     532A      5.580709   533A      5.587399   534A      5.603043  
     535A      5.616853   536A      5.625795   537A      5.644448  
     538A      5.679617   539A      5.691873   540A      5.701401  
     541A      5.713726   542A      5.761056   543A      5.798211  
     544A      5.822011   545A      5.827855   546A      5.885899  
     547A      5.898397   548A      5.945129   549A      5.971476  
     550A      6.090582   551A      6.114297   552A      6.127784  
     553A      6.207253   554A      6.263259   555A      6.266410  
     556A      6.288908   557A      6.311398   558A      6.331975  
     559A      6.405630   560A      6.422387   561A      6.457164  
     562A      6.481100   563A      6.688819   564A      6.991043  
     565A      8.986154   566A     10.147462   567A     12.406286  
     568A     12.558489   569A     13.006235   570A     13.213929  
     571A     13.459901   572A     13.621499   573A     13.897415  
     574A     14.397667   575A     14.674768   576A     15.695637  

    Final Occupation by Irrep:
              A 
    DOCC [    51 ]

  @DF-RHF Final Energy:  -921.64356906887906

   => Energetics <=

    Nuclear Repulsion Energy =            812.9816783572972554
    One-Electron Energy =               -2874.5227931413164697
    Two-Electron Energy =                1139.8975457151400406
    Total Energy =                       -921.6435690688790601

Computation Completed


Properties will be evaluated at   0.000000,   0.000000,   0.000000 [a0]

Properties computed using the SCF density matrix

  Nuclear Dipole Moment: [e a0]
     X:    26.3571      Y:     4.4601      Z:    -4.6757

  Electronic Dipole Moment: [e a0]
     X:   -25.3867      Y:    -4.2883      Z:     4.4732

  Dipole Moment: [e a0]
     X:     0.9704      Y:     0.1718      Z:    -0.2024     Total:     1.0061

  Dipole Moment: [D]
     X:     2.4665      Y:     0.4367      Z:    -0.5145     Total:     2.5571


*** tstop() called on skystd35.palmetto.clemson.edu at Sat Dec 11 17:50:19 2021
Module time:
	user time   =     137.35 seconds =       2.29 minutes
	system time =      12.70 seconds =       0.21 minutes
	total time  =        150 seconds =       2.50 minutes
Total time:
	user time   =     137.35 seconds =       2.29 minutes
	system time =      12.70 seconds =       0.21 minutes
	total time  =        150 seconds =       2.50 minutes

*** tstart() called on skystd35.palmetto.clemson.edu
*** at Sat Dec 11 17:50:19 2021


  //>>>>>>>>>>>>>>>>>>>>>>>>>>>>>>>>>>>//
  //               DFMP2               //
  //<<<<<<<<<<<<<<<<<<<<<<<<<<<<<<<<<<<//

   => Loading Basis Set <=

    Name: (CC-PVTZ AUX)
    Role: RIFIT
    Keyword: DF_BASIS_MP2
    atoms 1-12         entry C          line   209 file /home/maxbuskirk/.conda/envs/psifour/share/psi4/basis/cc-pvtz-ri.gbs 
    atoms 13-14, 16-26 entry H          line    19 file /home/maxbuskirk/.conda/envs/psifour/share/psi4/basis/cc-pvtz-ri.gbs 
    atoms 15           entry CL         line   845 file /home/maxbuskirk/.conda/envs/psifour/share/psi4/basis/cc-pvtz-ri.gbs 

	 --------------------------------------------------------
	                          DF-MP2                         
	      2nd-Order Density-Fitted Moller-Plesset Theory     
	              RMP2 Wavefunction,   1 Threads             
	                                                         
	        Rob Parrish, Justin Turney, Andy Simmonett,      
	           Ed Hohenstein, and C. David Sherrill          
	 --------------------------------------------------------

   => Auxiliary Basis Set <=

  Basis Set: (CC-PVTZ AUX)
    Blend: CC-PVTZ-RI
    Number of shells: 438
    Number of basis functions: 1484
    Number of Cartesian functions: 1823
    Spherical Harmonics?: true
    Max angular momentum: 4

	 --------------------------------------------------------
	                 NBF =   576, NAUX =  1484
	 --------------------------------------------------------
	   CLASS    FOCC     OCC    AOCC    AVIR     VIR    FVIR
	   PAIRS       0      51      51     525     525       0
	 --------------------------------------------------------


         ------------------------------------------------------------
                                     CPHF                           
                                  Rob Parrish                       
         ------------------------------------------------------------

  ==> Geometry <==

    Molecular point group: c1
    Full point group: C1

    Geometry (in Angstrom), charge = 0, multiplicity = 1:

       Center              X                  Y                   Z               Mass       
    ------------   -----------------  -----------------  -----------------  -----------------
         C            3.802945809143     1.484800783811     0.465358189183    12.000000000000
         C            2.291655809143     1.765766783811     0.557951189183    12.000000000000
         C            1.685687809143     0.539327783811    -0.107002810817    12.000000000000
         C            2.610715809143    -0.083052216189    -0.893403810817    12.000000000000
         C            3.945475809143     0.630793783811    -0.807370810817    12.000000000000
         C            0.264561809143     0.182757783811     0.050494189183    12.000000000000
         C           -0.146582190857    -1.162258216189     0.191075189183    12.000000000000
         C           -1.502552190857    -1.487860216189     0.346474189183    12.000000000000
         C           -2.474390190857    -0.474497216189     0.375720189183    12.000000000000
         C           -2.077915190857     0.868283783811     0.258681189183    12.000000000000
         C           -0.722483190857     1.193224783811     0.105029189183    12.000000000000
         C            2.411793809143    -1.227382216189    -1.841471810817    12.000000000000
         H           -0.423713190857     2.242053783811     0.012511189183     1.007825032230
         H           -2.827149190857     1.665340783811     0.289370189183     1.007825032230
         CL          -4.155485190857    -0.877638216189     0.573197189183    34.968852682000
         H           -1.799441190857    -2.535271216189     0.458335189183     1.007825032230
         H            0.610007809143    -1.952078216189     0.210132189183     1.007825032230
         H            4.103960809143     0.878930783811     1.336492189183     1.007825032230
         H            4.419008809143     2.397652783811     0.454225189183     1.007825032230
         H            4.801512809143    -0.065526216189    -0.771023810817     1.007825032230
         H            4.086619809143     1.263295783811    -1.706992810817     1.007825032230
         H            1.347344809143    -1.458277216189    -1.994060810817     1.007825032230
         H            2.860471809143    -0.983789216189    -2.820550810817     1.007825032230
         H            2.917255809143    -2.140695216189    -1.479335810817     1.007825032230
         H            1.937653809143     1.910146783811     1.592275189183     1.007825032230
         H            2.023802809143     2.678830783811    -0.009188810817     1.007825032230

  Nuclear repulsion =  812.981678357297255
  Reference energy  = -921.643569068879060

  ==> Basis Set <==

  Basis Set: CC-PVTZ
    Blend: CC-PVTZ
    Number of shells: 210
    Number of basis functions: 576
    Number of Cartesian functions: 654
    Spherical Harmonics?: true
    Max angular momentum: 3

  ==> CGRSolver (by Rob Parrish) <==

   Number of roots    =         1
   Preconditioning    =    JACOBI
   Convergence cutoff =     1E-06
   Maximum iterations =       100

  ==> CPHFRHamiltonian (by Rob Parrish) <== 

  ==> DiskDFJK: Density-Fitted J/K Matrices <==

    J tasked:                  Yes
    K tasked:                  Yes
    wK tasked:                  No
    OpenMP threads:              1
    Integrals threads:           1
    Memory [MiB]:              375
    Algorithm:                Disk
    Integral Cache:           NONE
    Schwarz Cutoff:          1E-12
    Fitting Condition:       1E-10

   => Auxiliary Basis Set <=

  Basis Set: (CC-PVTZ AUX)
    Blend: CC-PVTZ-JKFIT
    Number of shells: 467
    Number of basis functions: 1459
    Number of Cartesian functions: 1752
    Spherical Harmonics?: true
    Max angular momentum: 4

  ==> CPHF Iterations <==

  => Iterations <=

             Iter  Converged  Remaining    Residual
  CGR           1          0          1   8.439E-02
  CGR           2          0          1   1.742E-02
  CGR           3          0          1   7.888E-03
  CGR           4          0          1   4.061E-03
  CGR           5          0          1   1.977E-03
  CGR           6          0          1   9.508E-04
  CGR           7          0          1   3.734E-04
  CGR           8          0          1   1.241E-04
  CGR           9          0          1   4.371E-05
  CGR          10          0          1   1.473E-05
  CGR          11          0          1   5.865E-06
  CGR          12          0          1   2.289E-06
  CGR          13          1          0   9.054E-07

    CGRSolver converged.

  ==> DFCorrGrad: Density-Fitted Correlated Gradients <==

    OpenMP threads:              1
    Integrals threads:           1
    Memory [GiB]:            0.366
    Schwarz Cutoff:          0E+00
    Fitting Condition:       1E-10

   => Auxiliary Basis Set <=

  Basis Set: (CC-PVTZ AUX)
    Blend: CC-PVTZ-JKFIT
    Number of shells: 467
    Number of basis functions: 1459
    Number of Cartesian functions: 1752
    Spherical Harmonics?: true
    Max angular momentum: 4

	-----------------------------------------------------------
	 ==================> DF-MP2 Energies <==================== 
	-----------------------------------------------------------
	 Reference Energy          =    -921.6435690688790601 [Eh]
	 Singles Energy            =      -0.0000000000000000 [Eh]
	 Same-Spin Energy          =      -0.5734513597704446 [Eh]
	 Opposite-Spin Energy      =      -1.7862035035589177 [Eh]
	 Correlation Energy        =      -2.3596548633293621 [Eh]
	 Total Energy              =    -924.0032239322084706 [Eh]
	-----------------------------------------------------------
	 ================> DF-SCS-MP2 Energies <================== 
	-----------------------------------------------------------
	 SCS Same-Spin Scale       =       0.3333333333333333 [-]
	 SCS Opposite-Spin Scale   =       1.2000000000000000 [-]
	 SCS Same-Spin Energy      =      -0.1911504532568148 [Eh]
	 SCS Opposite-Spin Energy  =      -2.1434442042707009 [Eh]
	 SCS Correlation Energy    =      -2.3345946575275156 [Eh]
	 SCS Total Energy          =    -923.9781637264065921 [Eh]
	-----------------------------------------------------------


  -Total Gradient:
     Atom            X                  Y                   Z
    ------   -----------------  -----------------  -----------------
       1       -0.002408377497    -0.000680858242    -0.002495711101
       2        0.003236334838    -0.001502892574    -0.000474409572
       3       -0.003247732391     0.005188324039     0.006415448390
       4        0.006035432856    -0.005787136379    -0.006025083937
       5       -0.000886275933     0.001647127106     0.002597084837
       6       -0.000745113784    -0.000147989005    -0.000899954763
       7        0.005278011548    -0.007360077824     0.000092141793
       8       -0.000533744318     0.001563881663    -0.000216720739
       9       -0.016093982643    -0.003835967172     0.001768297732
      10        0.000262472645    -0.001531336634    -0.000031759511
      11        0.001310339105     0.008655134823    -0.000557848532
      12        0.000009210404     0.000765832478     0.000811702307
      13        0.004016605091     0.011178878370    -0.001209776914
      14       -0.007499340751     0.010017080203     0.000230741285
      15       -0.007799246733    -0.001879444546     0.000947358061
      16       -0.002040127896    -0.012336572304     0.001096866228
      17        0.008764398012    -0.008024282574     0.000388077374
      18        0.003063804093    -0.005566674084     0.008355027280
      19        0.006203211537     0.008863703508     0.000107715675
      20        0.008464793486    -0.006492757336     0.000029870784
      21        0.001657305516     0.005688601917    -0.008309083048
      22       -0.009402398889    -0.002145742536    -0.001561804321
      23        0.004047058645     0.002059648569    -0.009064621836
      24        0.004484779332    -0.008461152658     0.003091330352
      25       -0.003631297134     0.001757614624     0.009883014302
      26       -0.002546119186     0.008367056538    -0.004967902099


*** tstop() called on skystd35.palmetto.clemson.edu at Sat Dec 11 17:59:56 2021
Module time:
	user time   =     557.14 seconds =       9.29 minutes
	system time =      16.38 seconds =       0.27 minutes
	total time  =        577 seconds =       9.62 minutes
Total time:
	user time   =     694.49 seconds =      11.57 minutes
	system time =      29.08 seconds =       0.48 minutes
	total time  =        727 seconds =      12.12 minutes

			-----------------------------------------
			 OPTKING 2.0: for geometry optimizations 
			  - R.A. King,  Bethel University        
			-----------------------------------------

	Internal coordinates to be generated automatically.
	Detected frag 1 with atoms:  1 2 3 4 5 6 7 8 9 10 11 12 13 14 15 16 17 18 19 20
	 21 22 23 24 25 26
	---Fragment 1 Bond Connectivity---
	 1 : 2 5 18 19
	 2 : 1 3 25 26
	 3 : 2 4 6
	 4 : 3 5 12
	 5 : 1 4 20 21
	 6 : 3 7 11
	 7 : 6 8 17
	 8 : 7 9 16
	 9 : 8 10 15
	 10 : 9 11 14
	 11 : 6 10 13
	 12 : 4 22 23 24
	 13 : 11
	 14 : 10
	 15 : 9
	 16 : 8
	 17 : 7
	 18 : 1
	 19 : 1
	 20 : 5
	 21 : 5
	 22 : 12
	 23 : 12
	 24 : 12
	 25 : 2
	 26 : 2

	---Fragment 1 Geometry and Gradient---
	 C           7.1865260492        2.8058668323        0.8793995278
	 C           4.3306018531        3.3368156228        1.0543749389
	 C           3.1854882923        1.0191818033       -0.2022060071
	 C           4.9335378707       -0.1569459427       -1.6882885219
	 C           7.4558687139        1.1920274930       -1.5257097141
	 C           0.4999493625        0.3453621587        0.0954201885
	 C          -0.2770001956       -2.1963497157        0.3610797769
	 C          -2.8394121299       -2.8116483216        0.6547413271
	 C          -4.6759197882       -0.8966697859        0.7100082574
	 C          -3.9266906226        1.6408185506        0.4888366014
	 C          -1.3652953610        2.2548680475        0.1984764027
	 C           4.5576297704       -2.3194162399       -3.4798773902
	 H          -0.8007018865        4.2368676099        0.0236427211
	 H          -5.3425376865        3.1470379870        0.5468304064
	 CL         -7.8527289291       -1.6584958658        1.0831857034
	 H          -3.4004510296       -4.7909682524        0.8661279812
	 H           1.1527476937       -3.6888932041        0.3970922877
	 H           7.7553619589        1.6609384646        2.5256042064
	 H           8.3507163953        4.5309071053        0.8583612068
	 H           9.0735441972       -0.1238266026       -1.4570238387
	 H           7.7225922182        2.3872830468       -3.2257489106
	 H           2.5461126858       -2.7557445536       -3.7682288100
	 H           5.4055083089       -1.8590921838       -5.3300685554
	 H           5.5128145172       -4.0453276767       -2.7955395300
	 H           3.6616350252        3.6096542808        3.0089640239
	 H           3.8244330412        5.0622565178       -0.0173643359
	            -0.0024083775       -0.0006808582       -0.0024957111
	             0.0032363348       -0.0015028926       -0.0004744096
	            -0.0032477324        0.0051883240        0.0064154484
	             0.0060354329       -0.0057871364       -0.0060250839
	            -0.0008862759        0.0016471271        0.0025970848
	            -0.0007451138       -0.0001479890       -0.0008999548
	             0.0052780115       -0.0073600778        0.0000921418
	            -0.0005337443        0.0015638817       -0.0002167207
	            -0.0160939826       -0.0038359672        0.0017682977
	             0.0002624726       -0.0015313366       -0.0000317595
	             0.0013103391        0.0086551348       -0.0005578485
	             0.0000092104        0.0007658325        0.0008117023
	             0.0040166051        0.0111788784       -0.0012097769
	            -0.0074993408        0.0100170802        0.0002307413
	            -0.0077992467       -0.0018794445        0.0009473581
	            -0.0020401279       -0.0123365723        0.0010968662
	             0.0087643980       -0.0080242826        0.0003880774
	             0.0030638041       -0.0055666741        0.0083550273
	             0.0062032115        0.0088637035        0.0001077157
	             0.0084647935       -0.0064927573        0.0000298708
	             0.0016573055        0.0056886019       -0.0083090830
	            -0.0094023989       -0.0021457425       -0.0015618043
	             0.0040470586        0.0020596486       -0.0090646218
	             0.0044847793       -0.0084611527        0.0030913304
	            -0.0036312971        0.0017576146        0.0098830143
	            -0.0025461192        0.0083670565       -0.0049679021

	Previous optimization step data not found.  Starting new optimization.

	---Fragment 1 Intrafragment Coordinates---
	 - Coordinate -           - BOHR/RAD -       - ANG/DEG -
	 R(1,2)           =         2.910125	       1.539972
	 R(1,5)           =         2.908878	       1.539312
	 R(1,18)          =         2.084328	       1.102979
	 R(1,19)          =         2.081237	       1.101343
	 R(2,3)           =         2.874319	       1.521024
	 R(2,25)          =         2.083837	       1.102719
	 R(2,26)          =         2.093318	       1.107736
	 R(3,4)           =         2.578254	       1.364353
	 R(3,6)           =         2.784732	       1.473617
	 R(4,5)           =         2.865016	       1.516101
	 R(4,12)          =         2.833262	       1.499298
	 R(5,20)          =         2.086400	       1.104075
	 R(5,21)          =         2.095211	       1.108738
	 R(6,7)           =         2.671053	       1.413460
	 R(6,11)          =         2.671324	       1.413604
	 R(7,8)           =         2.651563	       1.403147
	 R(7,17)          =         2.067163	       1.093895
	 R(8,9)           =         2.653857	       1.404361
	 R(8,16)          =         2.068129	       1.094407
	 R(9,10)          =         2.655016	       1.404974
	 R(9,15)          =         3.288124	       1.740000
	 R(10,11)         =         2.649927	       1.402281
	 R(10,14)         =         2.068014	       1.094346
	 R(11,13)         =         2.068249	       1.094470
	 R(12,22)         =         2.078396	       1.099840
	 R(12,23)         =         2.086625	       1.104194
	 R(12,24)         =         2.087934	       1.104887
	 B(1,2,3)         =         1.790127	     102.566700
	 B(1,2,25)        =         1.977226	     113.286730
	 B(1,2,26)        =         1.935744	     110.909973
	 B(1,5,4)         =         1.799406	     103.098356
	 B(1,5,20)        =         1.976291	     113.233108
	 B(1,5,21)        =         1.945680	     111.479279
	 B(2,1,5)         =         1.815021	     103.993068
	 B(2,1,18)        =         1.897117	     108.696781
	 B(2,1,19)        =         1.980503	     113.474479
	 B(2,3,4)         =         1.928043	     110.468727
	 B(2,3,6)         =         2.132448	     122.180296
	 B(3,2,25)        =         1.968972	     112.813790
	 B(3,2,26)        =         1.922464	     110.149081
	 B(3,4,5)         =         1.927736	     110.451137
	 B(3,4,12)        =         2.242975	     128.512983
	 B(3,6,7)         =         2.119286	     121.426120
	 B(3,6,11)        =         2.099640	     120.300495
	 B(4,3,6)         =         2.220651	     127.233923
	 B(4,5,20)        =         1.968736	     112.800279
	 B(4,5,21)        =         1.912013	     109.550255
	 B(4,12,22)       =         1.956670	     112.108928
	 B(4,12,23)       =         1.916015	     109.779573
	 B(4,12,24)       =         1.942233	     111.281772
	 B(5,1,18)        =         1.899693	     108.844371
	 B(5,1,19)        =         1.981979	     113.559042
	 B(5,4,12)        =         2.108376	     120.801049
	 B(6,7,8)         =         2.109388	     120.859024
	 B(6,7,17)        =         2.080147	     119.183628
	 B(6,11,10)       =         2.110063	     120.897728
	 B(6,11,13)       =         2.084192	     119.415378
	 B(7,6,11)        =         2.063785	     118.246186
	 B(7,8,9)         =         2.098568	     120.239106
	 B(7,8,16)        =         2.089281	     119.706964
	 B(8,7,17)        =         2.093145	     119.928351
	 B(8,9,10)        =         2.085899	     119.513219
	 B(8,9,15)        =         2.098751	     120.249548
	 B(9,8,16)        =         2.095250	     120.048967
	 B(9,10,11)       =         2.098279	     120.222516
	 B(9,10,14)       =         2.095045	     120.037222
	 B(10,9,15)       =         2.098475	     120.233761
	 B(10,11,13)      =         2.088843	     119.681864
	 B(11,10,14)      =         2.089860	     119.740132
	 B(18,1,19)       =         1.886638	     108.096378
	 B(20,5,21)       =         1.862719	     106.725958
	 B(22,12,23)      =         1.892897	     108.455036
	 B(22,12,24)      =         1.890932	     108.342411
	 B(23,12,24)      =         1.861979	     106.683530
	 B(25,2,26)       =         1.869917	     107.138345
	 D(1,2,3,4)       =        -0.348852	     -19.987768
	 D(1,2,3,6)       =         2.856778	     163.681328
	 D(1,5,4,3)       =         0.300808	      17.235016
	 D(1,5,4,12)      =        -2.930014	    -167.877438
	 D(2,1,5,4)       =        -0.499803	     -28.636594
	 D(2,1,5,20)      =        -2.632586	    -150.836039
	 D(2,1,5,21)      =         1.549857	      88.800282
	 D(2,3,4,5)       =         0.031048	       1.778925
	 D(2,3,4,12)      =        -3.012567	    -172.607364
	 D(2,3,6,7)       =        -2.462500	    -141.090867
	 D(2,3,6,11)      =         0.645400	      36.978697
	 D(3,2,1,5)       =         0.514363	      29.470838
	 D(3,2,1,18)      =        -1.507311	     -86.362554
	 D(3,2,1,19)      =         2.676299	     153.340666
	 D(3,4,5,20)      =         2.438658	     139.724821
	 D(3,4,5,21)      =        -1.772435	    -101.553028
	 D(3,4,12,22)     =         0.167316	       9.586503
	 D(3,4,12,23)     =         2.272366	     130.196980
	 D(3,4,12,24)     =        -1.953574	    -111.931530
	 D(3,6,7,8)       =         3.136447	     179.705195
	 D(3,6,7,17)      =         0.029066	       1.665353
	 D(3,6,11,10)     =        -3.138209	    -179.806114
	 D(3,6,11,13)     =         0.017671	       1.012458
	 D(4,3,2,25)      =        -2.482003	    -142.208323
	 D(4,3,2,26)      =         1.712697	      98.130327
	 D(4,3,6,7)       =         0.754466	      43.227732
	 D(4,3,6,11)      =        -2.420819	    -138.702704
	 D(4,5,1,18)      =         1.520059	      87.092954
	 D(4,5,1,19)      =        -2.660781	    -152.451540
	 D(5,1,2,25)      =         2.641906	     151.370088
	 D(5,1,2,26)      =        -1.537774	     -88.107935
	 D(5,4,3,6)       =         3.104559	     177.878117
	 D(5,4,12,22)     =        -2.867367	    -164.288012
	 D(5,4,12,23)     =        -0.762317	     -43.677535
	 D(5,4,12,24)     =         1.294929	      74.193955
	 D(6,3,2,25)      =         0.723627	      41.460773
	 D(6,3,2,26)      =        -1.364858	     -78.200577
	 D(6,3,4,12)      =         0.060944	       3.491829
	 D(6,7,8,9)       =        -0.009298	      -0.532741
	 D(6,7,8,16)      =        -3.136753	    -179.722706
	 D(6,11,10,9)     =         0.012040	       0.689867
	 D(6,11,10,14)    =        -3.131840	    -179.441216
	 D(7,6,11,10)     =        -0.029252	      -1.676026
	 D(7,6,11,13)     =         3.126627	     179.142545
	 D(7,8,9,10)      =        -0.008597	      -0.492558
	 D(7,8,9,15)      =        -3.138387	    -179.816317
	 D(8,7,6,11)      =         0.027876	       1.597200
	 D(8,9,10,11)     =         0.007241	       0.414863
	 D(8,9,10,14)     =        -3.132057	    -179.453662
	 D(9,8,7,17)      =         3.097830	     177.492594
	 D(9,10,11,13)    =         3.139309	     179.869135
	 D(10,9,8,16)     =         3.118810	     178.694624
	 D(11,6,7,17)     =        -3.079505	    -176.442642
	 D(11,10,9,15)    =         3.137033	     179.738730
	 D(12,4,5,20)     =        -0.792164	     -45.387633
	 D(12,4,5,21)     =         1.279929	      73.334518
	 D(13,11,10,14)   =        -0.004572	      -0.261949
	 D(14,10,9,15)    =        -0.002265	      -0.129795
	 D(15,9,8,16)     =        -0.010980	      -0.629135
	 D(16,8,7,17)     =        -0.029625	      -1.697371
	 D(18,1,2,25)     =         0.620232	      35.536695
	 D(18,1,2,26)     =         2.723738	     156.058672
	 D(18,1,5,20)     =        -0.612724	     -35.106492
	 D(18,1,5,21)     =        -2.713466	    -155.470171
	 D(19,1,2,25)     =        -1.479343	     -84.760085
	 D(19,1,2,26)     =         0.624163	      35.761892
	 D(19,1,5,20)     =         1.489621	      85.349014
	 D(19,1,5,21)     =        -0.611121	     -35.014665
	 R(7,12)          =         6.175900	       3.268146

	Current energy   :      -924.0032239322

	Generating empirical Hessian (Schlegel '84) for each fragment.
	Taking RFO optimization step.
	Going to follow RFO solution 1.
	Using RFO vector 1.
	Norm of target step-size    0.18595
	Projected energy change by RFO approximation:        -0.0106480010

	Back-transformation to cartesian coordinates...
	Successfully converged to displaced geometry.

	--- Internal Coordinate Step in ANG or DEG, aJ/ANG or AJ/DEG ---
	 ---------------------------------------------------------------------------
	   Coordinate                Previous        Force       Change         New 
	   ----------                --------       ------       ------       ------
	    1 R(1,2)          =      1.539972    -0.072863    -0.014083     1.525889
	    2 R(1,5)          =      1.539312    -0.073007    -0.013840     1.525472
	    3 R(1,18)         =      1.102979    -0.086447    -0.016088     1.086891
	    4 R(1,19)         =      1.101343    -0.089106    -0.016498     1.084845
	    5 R(2,3)          =      1.521024    -0.072738    -0.015690     1.505334
	    6 R(2,25)         =      1.102719    -0.087873    -0.016340     1.086379
	    7 R(2,26)         =      1.107736    -0.082847    -0.015651     1.092085
	    8 R(3,4)          =      1.364353    -0.132683    -0.018668     1.345685
	    9 R(3,6)          =      1.473617    -0.109438    -0.021108     1.452509
	   10 R(4,5)          =      1.516101    -0.077088    -0.016198     1.499903
	   11 R(4,12)         =      1.499298    -0.077749    -0.015601     1.483697
	   12 R(5,20)         =      1.104075    -0.087816    -0.016400     1.087675
	   13 R(5,21)         =      1.108738    -0.084019    -0.015923     1.092815
	   14 R(6,7)          =      1.413460    -0.127699    -0.019021     1.394440
	   15 R(6,11)         =      1.413604    -0.132484    -0.019236     1.394368
	   16 R(7,8)          =      1.403147    -0.144031    -0.019986     1.383161
	   17 R(7,17)         =      1.093895    -0.097731    -0.017670     1.076225
	   18 R(8,9)          =      1.404361    -0.149107    -0.020641     1.383720
	   19 R(8,16)         =      1.094407    -0.102756    -0.018610     1.075797
	   20 R(9,10)         =      1.404974    -0.148631    -0.020631     1.384343
	   21 R(9,15)         =      1.740000    -0.066554    -0.013099     1.726901
	   22 R(10,11)        =      1.402281    -0.143060    -0.019815     1.382466
	   23 R(10,14)        =      1.094346    -0.102462    -0.018553     1.075793
	   24 R(11,13)        =      1.094470    -0.098135    -0.017776     1.076694
	   25 R(12,22)        =      1.099840    -0.080468    -0.014827     1.085012
	   26 R(12,23)        =      1.104194    -0.083511    -0.015602     1.088593
	   27 R(12,24)        =      1.104887    -0.082873    -0.015517     1.089370
	   28 B(1,2,3)        =    102.566700    -0.000019    -0.062425   102.504275
	   29 B(1,2,25)       =    113.286730    -0.000025    -0.082169   113.204560
	   30 B(1,2,26)       =    110.909973     0.000021    -0.013501   110.896473
	   31 B(1,5,4)        =    103.098356    -0.000010    -0.004781   103.093575
	   32 B(1,5,20)       =    113.233108    -0.000007    -0.001284   113.231824
	   33 B(1,5,21)       =    111.479279     0.000006    -0.046666   111.432613
	   34 B(2,1,5)        =    103.993068    -0.000129    -0.093930   103.899138
	   35 B(2,1,18)       =    108.696781     0.000019    -0.064532   108.632248
	   36 B(2,1,19)       =    113.474479     0.000048     0.017772   113.492251
	   37 B(2,3,4)        =    110.468727     0.000069     0.152111   110.620837
	   38 B(2,3,6)        =    122.180296    -0.000380    -0.493914   121.686382
	   39 B(3,2,25)       =    112.813790     0.000016    -0.014824   112.798966
	   40 B(3,2,26)       =    110.149081    -0.000006    -0.004578   110.144503
	   41 B(3,4,5)        =    110.451137     0.000086     0.101550   110.552686
	   42 B(3,4,12)       =    128.512983     0.000180     0.153092   128.666075
	   43 B(3,6,7)        =    121.426120     0.000306     0.443008   121.869127
	   44 B(3,6,11)       =    120.300495    -0.000137    -0.115705   120.184790
	   45 B(4,3,6)        =    127.233923     0.000310     0.331834   127.565757
	   46 B(4,5,20)       =    112.800279     0.000006    -0.053016   112.747262
	   47 B(4,5,21)       =    109.550255    -0.000014    -0.104508   109.445748
	   48 B(4,12,22)      =    112.108928    -0.000013    -0.055441   112.053487
	   49 B(4,12,23)      =    109.779573    -0.000013    -0.050884   109.728689
	   50 B(4,12,24)      =    111.281772    -0.000025    -0.121578   111.160194
	   51 B(5,1,18)       =    108.844371     0.000017    -0.062517   108.781854
	   52 B(5,1,19)       =    113.559042     0.000053     0.042695   113.601737
	   53 B(5,4,12)       =    120.801049    -0.000267    -0.262981   120.538068
	   54 B(6,7,8)        =    120.859024     0.000158     0.456254   121.315278
	   55 B(6,7,17)       =    119.183628    -0.000019     0.036843   119.220471
	   56 B(6,11,10)      =    120.897728     0.000153     0.430002   121.327730
	   57 B(6,11,13)      =    119.415378    -0.000012     0.067622   119.483000
	   58 B(7,6,11)       =    118.246186    -0.000169    -0.330514   117.915672
	   59 B(7,8,9)        =    120.239106    -0.000246    -0.796021   119.443084
	   60 B(7,8,16)       =    119.706964     0.000234     0.884929   120.591893
	   61 B(8,7,17)       =    119.928351    -0.000138    -0.484405   119.443946
	   62 B(8,9,10)       =    119.513219     0.000340     1.008374   120.521593
	   63 B(8,9,15)       =    120.249548    -0.000169    -0.501168   119.748380
	   64 B(9,8,16)       =    120.048967     0.000012    -0.088410   119.960557
	   65 B(9,10,11)      =    120.222516    -0.000236    -0.772503   119.450013
	   66 B(9,10,14)      =    120.037222     0.000008    -0.096711   119.940512
	   67 B(10,9,15)      =    120.233761    -0.000171    -0.507368   119.726393
	   68 B(10,11,13)     =    119.681864    -0.000141    -0.497051   119.184813
	   69 B(11,10,14)     =    119.740132     0.000228     0.869280   120.609411
	   70 B(18,1,19)      =    108.096378    -0.000010     0.143141   108.239519
	   71 B(20,5,21)      =    106.725958     0.000017     0.192563   106.918522
	   72 B(22,12,23)     =    108.455036     0.000019     0.105473   108.560509
	   73 B(22,12,24)     =    108.342411     0.000018     0.068317   108.410729
	   74 B(23,12,24)     =    106.683530     0.000017     0.066497   106.750026
	   75 B(25,2,26)      =    107.138345     0.000013     0.165690   107.304035
	   76 D(1,2,3,4)      =    -19.987768    -0.000008    -0.000702   -19.988470
	   77 D(1,2,3,6)      =    163.681328    -0.000006     0.135456   163.816784
	   78 D(1,5,4,3)      =     17.235016     0.000002    -0.146179    17.088837
	   79 D(1,5,4,12)     =   -167.877438     0.000001    -0.225150  -168.102589
	   80 D(2,1,5,4)      =    -28.636594     0.000006     0.194254   -28.442339
	   81 D(2,1,5,20)     =   -150.836039     0.000006     0.262598  -150.573441
	   82 D(2,1,5,21)     =     88.800282     0.000001     0.047479    88.847761
	   83 D(2,3,4,5)      =      1.778925     0.000004     0.095894     1.874819
	   84 D(2,3,4,12)     =   -172.607364     0.000012     0.210488  -172.396876
	   85 D(2,3,6,7)      =   -141.090867     0.000004    -0.771446  -141.862313
	   86 D(2,3,6,11)     =     36.978697    -0.000002    -0.889051    36.089646
	   87 D(3,2,1,5)      =     29.470838    -0.000005    -0.165708    29.305130
	   88 D(3,2,1,18)     =    -86.362554     0.000003    -0.019449   -86.382003
	   89 D(3,2,1,19)     =    153.340666    -0.000004    -0.167073   153.173592
	   90 D(3,4,5,20)     =    139.724821    -0.000000    -0.179607   139.545213
	   91 D(3,4,5,21)     =   -101.553028     0.000004    -0.041675  -101.594703
	   92 D(3,4,12,22)    =      9.586503    -0.000004    -0.213202     9.373301
	   93 D(3,4,12,23)    =    130.196980    -0.000002    -0.151188   130.045792
	   94 D(3,4,12,24)    =   -111.931530    -0.000003    -0.175424  -112.106954
	   95 D(3,6,7,8)      =    179.705195    -0.000003     0.023594   179.728789
	   96 D(3,6,7,17)     =      1.665353    -0.000006    -0.288061     1.377293
	   97 D(3,6,11,10)    =   -179.806114     0.000001    -0.046876  -179.852989
	   98 D(3,6,11,13)    =      1.012458     0.000001    -0.091080     0.921378
	   99 D(4,3,2,25)     =   -142.208323    -0.000000     0.145929  -142.062394
	  100 D(4,3,2,26)     =     98.130327    -0.000005    -0.051721    98.078606
	  101 D(4,3,6,7)      =     43.227732     0.000010    -0.595661    42.632070
	  102 D(4,3,6,11)     =   -138.702704     0.000003    -0.713266  -139.415971
	  103 D(4,5,1,18)     =     87.092954    -0.000002     0.046268    87.139222
	  104 D(4,5,1,19)     =   -152.451540     0.000006     0.211923  -152.239618
	  105 D(5,1,2,25)     =    151.370088    -0.000007    -0.267267   151.102821
	  106 D(5,1,2,26)     =    -88.107935    -0.000003    -0.120180   -88.228116
	  107 D(5,4,3,6)      =    177.878117    -0.000006    -0.088802   177.789316
	  108 D(5,4,12,22)    =   -164.288012     0.000001    -0.109287  -164.397299
	  109 D(5,4,12,23)    =    -43.677535     0.000002    -0.047273   -43.724808
	  110 D(5,4,12,24)    =     74.193955     0.000002    -0.071509    74.122445
	  111 D(6,3,2,25)     =     41.460773     0.000002     0.282086    41.742860
	  112 D(6,3,2,26)     =    -78.200577    -0.000004     0.084436   -78.116140
	  113 D(6,3,4,12)     =      3.491829     0.000003     0.025792     3.517621
	  114 D(6,7,8,9)      =     -0.532741    -0.000002    -0.022887    -0.555627
	  115 D(6,7,8,16)     =   -179.722706    -0.000001    -0.063842  -179.786548
	  116 D(6,11,10,9)    =      0.689867     0.000001     0.042109     0.731977
	  117 D(6,11,10,14)   =   -179.441216     0.000002     0.081082  -179.360134
	  118 D(7,6,11,10)    =     -1.676026    -0.000003    -0.145286    -1.821312
	  119 D(7,6,11,13)    =    179.142545    -0.000003    -0.189490   178.953056
	  120 D(7,8,9,10)     =     -0.492558    -0.000001    -0.099743    -0.592301
	  121 D(7,8,9,15)     =   -179.816317    -0.000000    -0.080640  -179.896957
	  122 D(8,7,6,11)     =      1.597200     0.000003     0.135043     1.732243
	  123 D(8,9,10,11)    =      0.414863     0.000002     0.090851     0.505714
	  124 D(8,9,10,14)    =   -179.453662     0.000001     0.050861  -179.402801
	  125 D(9,8,7,17)     =    177.492594     0.000002     0.299657   177.792251
	  126 D(9,10,11,13)   =    179.869135     0.000001     0.090736   179.959871
	  127 D(10,9,8,16)    =    178.694624    -0.000001    -0.051073   178.643551
	  128 D(11,6,7,17)    =   -176.442642     0.000000    -0.176611  -176.619253
	  129 D(11,10,9,15)   =    179.738730     0.000001     0.071792   179.810522
	  130 D(12,4,5,20)    =    -45.387633    -0.000002    -0.258579   -45.646212
	  131 D(12,4,5,21)    =     73.334518     0.000002    -0.120646    73.213872
	  132 D(13,11,10,14)  =     -0.261949     0.000002     0.129709    -0.132240
	  133 D(14,10,9,15)   =     -0.129795     0.000000     0.031802    -0.097993
	  134 D(15,9,8,16)    =     -0.629135    -0.000000    -0.031970    -0.661105
	  135 D(16,8,7,17)    =     -1.697371     0.000002     0.258701    -1.438670
	  136 D(18,1,2,25)    =     35.536695     0.000002    -0.121007    35.415688
	  137 D(18,1,2,26)    =    156.058672     0.000005     0.026079   156.084752
	  138 D(18,1,5,20)    =    -35.106492    -0.000002     0.114612   -34.991880
	  139 D(18,1,5,21)    =   -155.470171    -0.000007    -0.100507  -155.570678
	  140 D(19,1,2,25)    =    -84.760085    -0.000006    -0.268631   -85.028716
	  141 D(19,1,2,26)    =     35.761892    -0.000003    -0.121545    35.640347
	  142 D(19,1,5,20)    =     85.349014     0.000006     0.280266    85.629280
	  143 D(19,1,5,21)    =    -35.014665     0.000001     0.065147   -34.949517
	  144 R(7,12)         =      3.268146    -0.023472    -0.027790     3.240356
	 ---------------------------------------------------------------------------
	Successfully symmetrized geometry.

  ==> Convergence Check <==

  Measures of convergence in internal coordinates in au.
  Criteria marked as inactive (o), active & met (*), and active & unmet ( ).
  --------------------------------------------------------------------------------------------- ~
   Step     Total Energy     Delta E     MAX Force     RMS Force      MAX Disp      RMS Disp    ~
  --------------------------------------------------------------------------------------------- ~
    Convergence Criteria    1.00e-06 *    3.00e-04 *             o    1.20e-03 *             o  ~
  --------------------------------------------------------------------------------------------- ~
      1    -924.00322393   -9.24e+02      1.81e-02      5.53e-03 o    5.25e-02      1.55e-02 o  ~
  ---------------------------------------------------------------------------------------------

	Writing optimization data to binary file.
	Structure for next step:
	Cartesian Geometry (in Angstrom)
	    C     3.7737856075   1.4605164675   0.4633034859
	    C     2.2759631622   1.7398661209   0.5459361048
	    C     1.6807481798   0.5228079120  -0.1102030180
	    C     2.5955063546  -0.0964111053  -0.8787433315
	    C     3.9183388337   0.6051666898  -0.7915053914
	    C     0.2769601418   0.1828577788   0.0434038738
	    C    -0.1505587145  -1.1378529609   0.1753626188
	    C    -1.4899426616  -1.4482073423   0.3265734392
	    C    -2.4249103816  -0.4286722649   0.3592056582
	    C    -2.0275743343   0.8932597326   0.2542085132
	    C    -0.6855333851   1.1898516934   0.1053054466
	    C     2.4040316874  -1.2305691087  -1.8159625335
	    H    -0.3813158738   2.2194206532   0.0233918483
	    H    -2.7614899759   1.6790033690   0.2903493656
	   CL    -4.0989738502  -0.8070393643   0.5503521219
	    H    -1.8065506243  -2.4710598446   0.4308397815
	    H     0.5800484103  -1.9280200506   0.1858223124
	    H     4.0645605244   0.8674680308   1.3264807944
	    H     4.3811508085   2.3592836494   0.4486560651
	    H     4.7580610780  -0.0846486712  -0.7461315161
	    H     4.0619358941   1.2228743851  -1.6814840402
	    H     1.3545762485  -1.4586141263  -1.9705290861
	    H     2.8520922170  -0.9913028997  -2.7787851446
	    H     2.9015002579  -2.1290985284  -1.4527853840
	    H     1.9230343314   1.8847694231   1.5631198287
	    H     2.0153199842   2.6372317201  -0.0192618737
			--------------------------
			 OPTKING Finished Execution 
			--------------------------

    Structure for next step:
    Molecular point group: c1
    Full point group: C1

    Geometry (in Angstrom), charge = 0, multiplicity = 1:

    C            3.760479895699     1.446733924318     0.468753528623
    C            2.262657444512     1.726083578793     0.551386147871
    C            1.667442459830     0.509025365183    -0.104752977513
    C            2.582200638224    -0.110193654552    -0.873293294072
    C            3.905033122480     0.591384143255    -0.786055353600
    C            0.263654416259     0.169075230580     0.048853914879
    C           -0.163864441720    -1.151635514285     0.180812660373
    C           -1.503248394059    -1.461989896930     0.332023481446
    C           -2.438216117742    -0.442454815478     0.364655700495
    C           -2.040880068848     0.879477187152     0.259658555103
    C           -0.698839114376     1.176069149129     0.110755487911
    C            2.390725970204    -1.244351662447    -1.810512499678
    H           -0.394621601920     2.205638112964     0.028841889373
    H           -2.774795713325     1.665220826634     0.295799407686
    CL          -4.112279592873    -0.820821916347     0.555802164945
    H           -1.819856358021    -2.484842403181     0.436289824092
    H            0.566742685945    -1.941802607139     0.191272354109
    H            4.051254813803     0.853685485281     1.331930840589
    H            4.367845099098     2.345501109722     0.454106107772
    H            4.744755370070    -0.098431220407    -0.740681478081
    H            4.048630183412     1.209091841026    -1.676034005917
    H            1.341270527197    -1.472396680964    -1.965079052872
    H            2.838786501580    -1.005085452464    -2.773335114630
    H            2.888194542718    -2.142881085727    -1.447335348800
    H            1.909728612334     1.870986881571     1.568569875743
    H            2.002014265470     2.623449181562    -0.013811832884


Scratch directory: /local_scratch/pbs.4129853.pbs02/
gradient() will perform analytic gradient computation.

*** tstart() called on skystd35.palmetto.clemson.edu
*** at Sat Dec 11 17:59:56 2021

   => Loading Basis Set <=

    Name: CC-PVTZ
    Role: ORBITAL
    Keyword: BASIS
    atoms 1-12         entry C          line   186 file /home/maxbuskirk/.conda/envs/psifour/share/psi4/basis/cc-pvtz.gbs 
    atoms 13-14, 16-26 entry H          line    23 file /home/maxbuskirk/.conda/envs/psifour/share/psi4/basis/cc-pvtz.gbs 
    atoms 15           entry CL         line   847 file /home/maxbuskirk/.conda/envs/psifour/share/psi4/basis/cc-pvtz.gbs 


         ---------------------------------------------------------
                                   SCF
               by Justin Turney, Rob Parrish, Andy Simmonett
                          and Daniel G. A. Smith
                              RHF Reference
                        1 Threads,    500 MiB Core
         ---------------------------------------------------------

  ==> Geometry <==

    Molecular point group: c1
    Full point group: C1

    Geometry (in Angstrom), charge = 0, multiplicity = 1:

       Center              X                  Y                   Z               Mass       
    ------------   -----------------  -----------------  -----------------  -----------------
         C            3.760479895699     1.446733924318     0.468753528623    12.000000000000
         C            2.262657444512     1.726083578793     0.551386147871    12.000000000000
         C            1.667442459830     0.509025365183    -0.104752977513    12.000000000000
         C            2.582200638224    -0.110193654552    -0.873293294072    12.000000000000
         C            3.905033122480     0.591384143255    -0.786055353600    12.000000000000
         C            0.263654416259     0.169075230580     0.048853914879    12.000000000000
         C           -0.163864441720    -1.151635514285     0.180812660373    12.000000000000
         C           -1.503248394059    -1.461989896930     0.332023481446    12.000000000000
         C           -2.438216117742    -0.442454815478     0.364655700495    12.000000000000
         C           -2.040880068848     0.879477187152     0.259658555103    12.000000000000
         C           -0.698839114376     1.176069149129     0.110755487911    12.000000000000
         C            2.390725970204    -1.244351662447    -1.810512499678    12.000000000000
         H           -0.394621601920     2.205638112964     0.028841889373     1.007825032230
         H           -2.774795713325     1.665220826634     0.295799407686     1.007825032230
         CL          -4.112279592873    -0.820821916347     0.555802164945    34.968852682000
         H           -1.819856358021    -2.484842403181     0.436289824092     1.007825032230
         H            0.566742685945    -1.941802607139     0.191272354109     1.007825032230
         H            4.051254813803     0.853685485281     1.331930840589     1.007825032230
         H            4.367845099098     2.345501109722     0.454106107772     1.007825032230
         H            4.744755370070    -0.098431220407    -0.740681478081     1.007825032230
         H            4.048630183412     1.209091841026    -1.676034005917     1.007825032230
         H            1.341270527197    -1.472396680964    -1.965079052872     1.007825032230
         H            2.838786501580    -1.005085452464    -2.773335114630     1.007825032230
         H            2.888194542718    -2.142881085727    -1.447335348800     1.007825032230
         H            1.909728612334     1.870986881571     1.568569875743     1.007825032230
         H            2.002014265470     2.623449181562    -0.013811832884     1.007825032230

  Running in c1 symmetry.

  Rotational constants: A =      0.06808  B =      0.01074  C =      0.00968 [cm^-1]
  Rotational constants: A =   2040.98824  B =    321.87064  C =    290.32874 [MHz]
  Nuclear repulsion =  823.371350373455357

  Charge       = 0
  Multiplicity = 1
  Electrons    = 102
  Nalpha       = 51
  Nbeta        = 51

  ==> Algorithm <==

  SCF Algorithm Type is DF.
  DIIS enabled.
  MOM disabled.
  Fractional occupation disabled.
  Guess Type is READ.
  Energy threshold   = 1.00e-10
  Density threshold  = 1.00e-10
  Integral threshold = 1.00e-12

  ==> Primary Basis <==

  Basis Set: CC-PVTZ
    Blend: CC-PVTZ
    Number of shells: 210
    Number of basis functions: 576
    Number of Cartesian functions: 654
    Spherical Harmonics?: true
    Max angular momentum: 3

   => Loading Basis Set <=

    Name: (CC-PVTZ AUX)
    Role: JKFIT
    Keyword: DF_BASIS_SCF
    atoms 1-12         entry C          line   125 file /home/maxbuskirk/.conda/envs/psifour/share/psi4/basis/cc-pvtz-jkfit.gbs 
    atoms 13-14, 16-26 entry H          line    51 file /home/maxbuskirk/.conda/envs/psifour/share/psi4/basis/cc-pvtz-jkfit.gbs 
    atoms 15           entry CL         line   689 file /home/maxbuskirk/.conda/envs/psifour/share/psi4/basis/cc-pvtz-jkfit.gbs 

   => Loading Basis Set <=

    Name: CC-PVTZ
    Role: ORBITAL
    Keyword: BASIS
    atoms 1-12         entry C          line   186 file /home/maxbuskirk/.conda/envs/psifour/share/psi4/basis/cc-pvtz.gbs 
    atoms 13-14, 16-26 entry H          line    23 file /home/maxbuskirk/.conda/envs/psifour/share/psi4/basis/cc-pvtz.gbs 
    atoms 15           entry CL         line   847 file /home/maxbuskirk/.conda/envs/psifour/share/psi4/basis/cc-pvtz.gbs 

  Reading orbitals from file /local_scratch/pbs.4129853.pbs02/pCl.mol.566358.180.npy, no projection.

  ==> Integral Setup <==

  ==> DiskDFJK: Density-Fitted J/K Matrices <==

    J tasked:                  Yes
    K tasked:                  Yes
    wK tasked:                  No
    OpenMP threads:              1
    Integrals threads:           1
    Memory [MiB]:              375
    Algorithm:                Disk
    Integral Cache:           NONE
    Schwarz Cutoff:          1E-12
    Fitting Condition:       1E-10

   => Auxiliary Basis Set <=

  Basis Set: (CC-PVTZ AUX)
    Blend: CC-PVTZ-JKFIT
    Number of shells: 467
    Number of basis functions: 1459
    Number of Cartesian functions: 1752
    Spherical Harmonics?: true
    Max angular momentum: 4

  Minimum eigenvalue in the overlap matrix is 2.8298815073E-05.
  Reciprocal condition number of the overlap matrix is 3.1127827969E-06.
    Using symmetric orthogonalization.

  ==> Pre-Iterations <==

  SCF Guess: Orbitals guess was supplied from a previous computation.

   -------------------------------------------------------
    Irrep   Nso     Nmo     Nalpha   Nbeta   Ndocc  Nsocc
   -------------------------------------------------------
     A        576     576      51      51      51       0
   -------------------------------------------------------
    Total     576     576      51      51      51       0
   -------------------------------------------------------

  ==> Iterations <==

                           Total Energy        Delta E     RMS |[F,P]|

   @DF-RHF iter   0:  -921.78567017260150   -9.21786e+02   2.35645e-04 
   @DF-RHF iter   1:  -921.65051447624614    1.35156e-01   3.54645e-05 DIIS
   @DF-RHF iter   2:  -921.65076364801712   -2.49172e-04   1.92437e-05 DIIS
   @DF-RHF iter   3:  -921.65082707466900   -6.34267e-05   4.04892e-06 DIIS
   @DF-RHF iter   4:  -921.65083140046340   -4.32579e-06   1.93979e-06 DIIS
   @DF-RHF iter   5:  -921.65083225770604   -8.57243e-07   6.08987e-07 DIIS
   @DF-RHF iter   6:  -921.65083244554182   -1.87836e-07   2.74225e-07 DIIS
   @DF-RHF iter   7:  -921.65083249118220   -4.56404e-08   1.23545e-07 DIIS
   @DF-RHF iter   8:  -921.65083250413011   -1.29479e-08   5.95411e-08 DIIS
   @DF-RHF iter   9:  -921.65083250694033   -2.81022e-09   2.45995e-08 DIIS
   @DF-RHF iter  10:  -921.65083250752309   -5.82759e-10   8.80020e-09 DIIS
   @DF-RHF iter  11:  -921.65083250757607   -5.29781e-11   2.88902e-09 DIIS
   @DF-RHF iter  12:  -921.65083250758005   -3.97904e-12   9.69501e-10 DIIS
   @DF-RHF iter  13:  -921.65083250758073   -6.82121e-13   3.73670e-10 DIIS
   @DF-RHF iter  14:  -921.65083250758107   -3.41061e-13   1.17363e-10 DIIS
   @DF-RHF iter  15:  -921.65083250757993    1.13687e-12   6.40723e-11 DIIS
  Energy and wave function converged.


  ==> Post-Iterations <==

    Orbital Energies [Eh]
    ---------------------

    Doubly Occupied:                                                      

       1A   -104.834489     2A    -11.294406     3A    -11.244292  
       4A    -11.242363     5A    -11.242300     6A    -11.238579  
       7A    -11.238430     8A    -11.230862     9A    -11.223631  
      10A    -11.220936    11A    -11.220761    12A    -11.220403  
      13A    -11.217987    14A    -10.559866    15A     -8.026791  
      16A     -8.024875    17A     -8.024844    18A     -1.193826  
      19A     -1.158792    20A     -1.116380    21A     -1.032337  
      22A     -1.023959    23A     -1.015515    24A     -0.945856  
      25A     -0.909139    26A     -0.848450    27A     -0.821793  
      28A     -0.790060    29A     -0.732366    30A     -0.664880  
      31A     -0.651953    32A     -0.650661    33A     -0.647145  
      34A     -0.624073    35A     -0.600644    36A     -0.581260  
      37A     -0.575994    38A     -0.552609    39A     -0.544512  
      40A     -0.541972    41A     -0.522158    42A     -0.505399  
      43A     -0.490167    44A     -0.485344    45A     -0.484000  
      46A     -0.470111    47A     -0.460954    48A     -0.450300  
      49A     -0.365710    50A     -0.349553    51A     -0.295843  

    Virtual:                                                              

      52A      0.103424    53A      0.117465    54A      0.131919  
      55A      0.151473    56A      0.153659    57A      0.168968  
      58A      0.179575    59A      0.182834    60A      0.186003  
      61A      0.208482    62A      0.210723    63A      0.221133  
      64A      0.222753    65A      0.234206    66A      0.238003  
      67A      0.239685    68A      0.264460    69A      0.296627  
      70A      0.302471    71A      0.317129    72A      0.327309  
      73A      0.330955    74A      0.350211    75A      0.356493  
      76A      0.369952    77A      0.384131    78A      0.396752  
      79A      0.414184    80A      0.418994    81A      0.422958  
      82A      0.434361    83A      0.437675    84A      0.438853  
      85A      0.453054    86A      0.464946    87A      0.469468  
      88A      0.478377    89A      0.488658    90A      0.492516  
      91A      0.497626    92A      0.505832    93A      0.519107  
      94A      0.528239    95A      0.536119    96A      0.551820  
      97A      0.557267    98A      0.564040    99A      0.567522  
     100A      0.574097   101A      0.575287   102A      0.581864  
     103A      0.593964   104A      0.601637   105A      0.606422  
     106A      0.607698   107A      0.614924   108A      0.616575  
     109A      0.623840   110A      0.631290   111A      0.639400  
     112A      0.644611   113A      0.649724   114A      0.654750  
     115A      0.663690   116A      0.664452   117A      0.670973  
     118A      0.679752   119A      0.683226   120A      0.687719  
     121A      0.692907   122A      0.703189   123A      0.712895  
     124A      0.720429   125A      0.734686   126A      0.738984  
     127A      0.750402   128A      0.763577   129A      0.768787  
     130A      0.771841   131A      0.786470   132A      0.808069  
     133A      0.814070   134A      0.821449   135A      0.843949  
     136A      0.844163   137A      0.869301   138A      0.876710  
     139A      0.881832   140A      0.895318   141A      0.914856  
     142A      0.930878   143A      0.936561   144A      0.939475  
     145A      0.958322   146A      0.963511   147A      0.975100  
     148A      0.996593   149A      0.997728   150A      1.012128  
     151A      1.013685   152A      1.019205   153A      1.031153  
     154A      1.032433   155A      1.050160   156A      1.059351  
     157A      1.070474   158A      1.072119   159A      1.081970  
     160A      1.094458   161A      1.101479   162A      1.116838  
     163A      1.127852   164A      1.140582   165A      1.166077  
     166A      1.173492   167A      1.176685   168A      1.189912  
     169A      1.192742   170A      1.202711   171A      1.215691  
     172A      1.221609   173A      1.225685   174A      1.240681  
     175A      1.247694   176A      1.259009   177A      1.278989  
     178A      1.286756   179A      1.297227   180A      1.301336  
     181A      1.307394   182A      1.315930   183A      1.330400  
     184A      1.336437   185A      1.346280   186A      1.359774  
     187A      1.365379   188A      1.375159   189A      1.391645  
     190A      1.401450   191A      1.408481   192A      1.420475  
     193A      1.423470   194A      1.424682   195A      1.451444  
     196A      1.457335   197A      1.461541   198A      1.471574  
     199A      1.477994   200A      1.492434   201A      1.504474  
     202A      1.514194   203A      1.515968   204A      1.525825  
     205A      1.536370   206A      1.543533   207A      1.550911  
     208A      1.558028   209A      1.567396   210A      1.570194  
     211A      1.580627   212A      1.591134   213A      1.605122  
     214A      1.613064   215A      1.622375   216A      1.628705  
     217A      1.638598   218A      1.646167   219A      1.664023  
     220A      1.673119   221A      1.687215   222A      1.697518  
     223A      1.705766   224A      1.722835   225A      1.744212  
     226A      1.749378   227A      1.760211   228A      1.768512  
     229A      1.776759   230A      1.782390   231A      1.812227  
     232A      1.818904   233A      1.835787   234A      1.857042  
     235A      1.863321   236A      1.888379   237A      1.912452  
     238A      1.949148   239A      1.952867   240A      1.979506  
     241A      1.989018   242A      2.021279   243A      2.025332  
     244A      2.093748   245A      2.139808   246A      2.177653  
     247A      2.209127   248A      2.239176   249A      2.252798  
     250A      2.260984   251A      2.278204   252A      2.335309  
     253A      2.353502   254A      2.375223   255A      2.391999  
     256A      2.406048   257A      2.416821   258A      2.420907  
     259A      2.446486   260A      2.452755   261A      2.468510  
     262A      2.478384   263A      2.490582   264A      2.501932  
     265A      2.525657   266A      2.542279   267A      2.584568  
     268A      2.595342   269A      2.615502   270A      2.624984  
     271A      2.631464   272A      2.643659   273A      2.655854  
     274A      2.660711   275A      2.672790   276A      2.676940  
[...]
	   53 B(5,4,12)       =    120.259662     0.000003     0.015793   120.275455
	   54 B(6,7,8)        =    121.470230     0.000001     0.002555   121.472784
	   55 B(6,7,17)       =    119.341486     0.000000     0.003414   119.344900
	   56 B(6,11,10)      =    121.523722     0.000000     0.000345   121.524067
	   57 B(6,11,13)      =    119.474166     0.000001     0.005216   119.479381
	   58 B(7,6,11)       =    117.709249    -0.000000    -0.000159   117.709091
	   59 B(7,8,9)        =    119.322604    -0.000001    -0.001882   119.320721
	   60 B(7,8,16)       =    120.876838     0.000000    -0.001210   120.875628
	   61 B(8,7,17)       =    119.154517    -0.000001    -0.005766   119.148751
	   62 B(8,9,10)       =    120.667275     0.000000     0.000227   120.667502
	   63 B(8,9,15)       =    119.664788     0.000000     0.000330   119.665117
	   64 B(9,8,16)       =    119.795109     0.000001     0.003159   119.798267
	   65 B(9,10,11)      =    119.277969    -0.000000    -0.000443   119.277527
	   66 B(9,10,14)      =    119.803396     0.000000     0.002520   119.805916
	   67 B(10,9,15)      =    119.663329    -0.000000    -0.000189   119.663140
	   68 B(10,11,13)     =    118.997498    -0.000001    -0.005383   118.992115
	   69 B(11,10,14)     =    120.918454     0.000000    -0.002031   120.916423
	   70 B(18,1,19)      =    108.166162     0.000000     0.000458   108.166620
	   71 B(20,5,21)      =    106.855283     0.000000     0.000996   106.856279
	   72 B(22,12,23)     =    108.437198    -0.000000     0.001650   108.438849
	   73 B(22,12,24)     =    108.257853    -0.000000    -0.009206   108.248648
	   74 B(23,12,24)     =    106.631113     0.000001     0.009071   106.640184
	   75 B(25,2,26)      =    107.250149    -0.000000    -0.000490   107.249659
	   76 D(1,2,3,4)      =    -19.614808    -0.000000    -0.036833   -19.651641
	   77 D(1,2,3,6)      =    164.123183    -0.000000    -0.033693   164.089490
	   78 D(1,5,4,3)      =     16.430821    -0.000000    -0.004653    16.426168
	   79 D(1,5,4,12)     =   -168.808619    -0.000000     0.026700  -168.781920
	   80 D(2,1,5,4)      =    -27.562754     0.000000    -0.019089   -27.581843
	   81 D(2,1,5,20)     =   -149.624931    -0.000000    -0.033982  -149.658913
	   82 D(2,1,5,21)     =     89.840657    -0.000000    -0.038501    89.802156
	   83 D(2,3,4,5)      =      2.053145     0.000000     0.026732     2.079877
	   84 D(2,3,4,12)     =   -172.142066     0.000000    -0.009765  -172.151831
	   85 D(2,3,6,7)      =   -147.065970    -0.000000    -0.038008  -147.103978
	   86 D(2,3,6,11)     =     31.193653     0.000000    -0.006359    31.187294
	   87 D(3,2,1,5)      =     28.553104     0.000000     0.032095    28.585199
	   88 D(3,2,1,18)     =    -87.232838     0.000000     0.033001   -87.199837
	   89 D(3,2,1,19)     =    152.418346     0.000000     0.031399   152.449745
	   90 D(3,4,5,20)     =    138.826210    -0.000000     0.004596   138.830806
	   91 D(3,4,5,21)     =   -102.439516    -0.000000     0.004149  -102.435368
	   92 D(3,4,12,22)    =     13.042170    -0.000000     0.059930    13.102100
	   93 D(3,4,12,23)    =    133.700010     0.000000     0.066437   133.766447
	   94 D(3,4,12,24)    =   -108.559172     0.000000     0.080676  -108.478496
	   95 D(3,6,7,8)      =    180.000000     0.000000     0.015417   180.015417
	   96 D(3,6,7,17)     =      2.131862     0.000000     0.009125     2.140987
	   97 D(3,6,11,10)    =    179.752620    -0.000000    -0.004368   179.748252
	   98 D(3,6,11,13)    =      0.542068    -0.000000    -0.019641     0.522427
	   99 D(4,3,2,25)     =   -141.588641    -0.000000    -0.035423  -141.624064
	  100 D(4,3,2,26)     =     98.598662    -0.000000    -0.035909    98.562752
	  101 D(4,3,6,7)      =     37.355305    -0.000000    -0.034224    37.321082
	  102 D(4,3,6,11)     =   -144.385072     0.000000    -0.002575  -144.387646
	  103 D(4,5,1,18)     =     88.121833     0.000000    -0.018500    88.103333
	  104 D(4,5,1,19)     =   -151.368358     0.000000    -0.017812  -151.386170
	  105 D(5,1,2,25)     =    150.417879    -0.000000     0.026749   150.444628
	  106 D(5,1,2,26)     =    -89.079188     0.000000     0.032732   -89.046455
	  107 D(5,4,3,6)      =    178.034356     0.000000     0.023024   178.057379
	  108 D(5,4,12,22)    =   -160.671070    -0.000000     0.021504  -160.649566
	  109 D(5,4,12,23)    =    -40.013230    -0.000000     0.028011   -39.985219
	  110 D(5,4,12,24)    =     77.727588     0.000000     0.042250    77.769837
	  111 D(6,3,2,25)     =     42.149350    -0.000000    -0.032283    42.117067
	  112 D(6,3,2,26)     =    -77.663348    -0.000000    -0.032769   -77.696117
	  113 D(6,3,4,12)     =      3.839144    -0.000000    -0.013473     3.825671
	  114 D(6,7,8,9)      =     -0.391911     0.000000    -0.000775    -0.392686
	  115 D(6,7,8,16)     =   -179.540919    -0.000000    -0.005953  -179.546872
	  116 D(6,11,10,9)    =      0.817276    -0.000000    -0.020066     0.797210
	  117 D(6,11,10,14)   =   -179.337576    -0.000000     0.001255  -179.336321
	  118 D(7,6,11,10)    =     -1.914026     0.000000     0.025999    -1.888027
	  119 D(7,6,11,13)    =    178.875422     0.000000     0.010726   178.886148
	  120 D(7,8,9,10)     =     -0.770030     0.000000     0.007260    -0.762770
	  121 D(7,8,9,15)     =   -179.986535    -0.000000    -0.024592  -180.011127
	  122 D(8,7,6,11)     =      1.698232    -0.000000    -0.015434     1.682798
	  123 D(8,9,10,11)    =      0.561300     0.000000     0.002962     0.564262
	  124 D(8,9,10,14)    =   -179.285603    -0.000000    -0.018112  -179.303715
	  125 D(9,8,7,17)     =    177.480127     0.000000     0.005690   177.485817
	  126 D(9,10,11,13)   =   -179.968504    -0.000000    -0.004784  -179.973288
	  127 D(10,9,8,16)    =    178.388330     0.000000     0.012344   178.400673
	  128 D(11,6,7,17)    =   -176.169912    -0.000000    -0.021721  -176.191632
	  129 D(11,10,9,15)   =    179.777817     0.000000     0.034817   179.812633
	  130 D(12,4,5,20)    =    -46.413231     0.000000     0.035948   -46.377282
	  131 D(12,4,5,21)    =     72.321043     0.000000     0.035501    72.356544
	  132 D(13,11,10,14)  =     -0.123356     0.000000     0.016537    -0.106819
	  133 D(14,10,9,15)   =     -0.069087     0.000000     0.013743    -0.055344
	  134 D(15,9,8,16)    =     -0.828175    -0.000000    -0.019508    -0.847683
	  135 D(16,8,7,17)    =     -1.668881     0.000000     0.000512    -1.668369
	  136 D(18,1,2,25)    =     34.631937    -0.000000     0.027655    34.659592
	  137 D(18,1,2,26)    =    155.134870     0.000000     0.033638   155.168509
	  138 D(18,1,5,20)    =    -33.940343    -0.000000    -0.033393   -33.973736
	  139 D(18,1,5,21)    =   -154.474756    -0.000000    -0.037912  -154.512668
	  140 D(19,1,2,25)    =    -85.716879    -0.000000     0.026053   -85.690826
	  141 D(19,1,2,26)    =     34.786055     0.000000     0.032036    34.818091
	  142 D(19,1,5,20)    =     86.569466    -0.000000    -0.032706    86.536760
	  143 D(19,1,5,21)    =    -33.964947    -0.000000    -0.037224   -34.002171
	  144 R(7,12)         =      3.193933    -0.000169    -0.000557     3.193376
	 ---------------------------------------------------------------------------
	Successfully symmetrized geometry.

  ==> Convergence Check <==

  Measures of convergence in internal coordinates in au.
  Criteria marked as inactive (o), active & met (*), and active & unmet ( ).
  ---------------------------------------------------------------------------------------------
   Step     Total Energy     Delta E     MAX Force     RMS Force      MAX Disp      RMS Disp   
  ---------------------------------------------------------------------------------------------
    Convergence Criteria    1.00e-06 *    3.00e-04 *             o    1.20e-03 *             o
  ---------------------------------------------------------------------------------------------
      7    -924.00905227   -8.24e-07 *    4.45e-05 *    1.04e-05 o    1.41e-03      3.58e-04 o  ~
  ---------------------------------------------------------------------------------------------


  **** Optimization is complete! (in 7 steps) ****

  ==> Optimization Summary <==

  Measures of convergence in internal coordinates in au.
  --------------------------------------------------------------------------------------------------------------- ~
   Step         Total Energy             Delta E       MAX Force       RMS Force        MAX Disp        RMS Disp  ~
  --------------------------------------------------------------------------------------------------------------- ~
      1    -924.003223932208   -924.003223932208      0.01809827      0.00553323      0.05251566      0.01549652  ~
      2    -924.008903863376     -0.005679931168      0.00186087      0.00044335      0.05357778      0.00955137  ~
      3    -924.009005304875     -0.000101441499      0.00069784      0.00012158      0.02902332      0.00783230  ~
      4    -924.009035994313     -0.000030689438      0.00039055      0.00011122      0.02124045      0.00495751  ~
      5    -924.009047610771     -0.000011616458      0.00020744      0.00005349      0.01966469      0.00378827  ~
      6    -924.009051445896     -0.000003835126      0.00023442      0.00003941      0.00666291      0.00129429  ~
      7    -924.009052269630     -0.000000823733      0.00004455      0.00001043      0.00140805      0.00035805  ~
  --------------------------------------------------------------------------------------------------------------- ~

	Writing optimization data to binary file.
	Final energy is   -924.0090522696299
	Final (previous) structure:
	Cartesian Geometry (in Angstrom)
	    C     3.7705063654   1.4454095326   0.4536056000
	    C     2.2706912262   1.7196683001   0.5510959739
	    C     1.6691404859   0.5055040096  -0.1074206379
	    C     2.5802548965  -0.1123204264  -0.8829019515
	    C     3.9080187591   0.5812897437  -0.7981701229
	    C     0.2668667860   0.1681121120   0.0529740794
	    C    -0.1784972596  -1.1552451394   0.0755246754
	    C    -1.5194241026  -1.4641223389   0.2292233966
	    C    -2.4399818430  -0.4384348539   0.3719572108
	    C    -2.0285364140   0.8848424091   0.3778816867
	    C    -0.6837482257   1.1762959156   0.2274971230
	    C     2.3840674778  -1.2398367518  -1.8290267872
	    H    -0.3688529466   2.2064465346   0.2332855371
	    H    -2.7535858604   1.6694956321   0.5011100776
	   CL    -4.1171193399  -0.8141944324   0.5648663741
	    H    -1.8510359846  -2.4868812677   0.2525916516
	    H     0.5390014000  -1.9544144190   0.0059298451
	    H     4.0739223082   0.8608881713   1.3177536325
	    H     4.3732881658   2.3465811309   0.4263953105
	    H     4.7420940050  -0.1148017665  -0.7480111317
	    H     4.0576287824   1.1910296278  -1.6922022918
	    H     1.3359888071  -1.4264540715  -2.0366854609
	    H     2.8874217482  -1.0208303901  -2.7686753207
	    H     2.8251197194  -2.1593989352  -1.4459764750
	    H     1.9297926316   1.8575776967   1.5733023772
	    H     2.0016822639   2.6201698394  -0.0041146398
	Saving final (previous) structure.
	Cleaning optimization helper files.
			--------------------------
			 OPTKING Finished Execution 
			--------------------------

    Final optimized geometry and variables:
    Molecular point group: c1
    Full point group: C1

    Geometry (in Angstrom), charge = 0, multiplicity = 1:

    C            3.770506380256     1.445409538286     0.453605601733
    C            2.270691235170     1.719668306906     0.551095976072
    C            1.669140492499     0.505504011619    -0.107420638311
    C            2.580254906684    -0.112320426888    -0.882901954950
    C            3.908018774505     0.581289745947    -0.798170126016
    C            0.266866787068     0.168112112622     0.052974079638
    C           -0.178497260351    -1.155245143973     0.075524675681
    C           -1.519424108565    -1.464122344608     0.229223397488
    C           -2.439981852564    -0.438434855587     0.371957212265
    C           -2.028536421962     0.884842412547     0.377881688200
    C           -0.683748228433     1.176295920212     0.227497123931
    C            2.384067487189    -1.239836756627    -1.829026794422
    H           -0.368852948016     2.206446543287     0.233285537977
    H           -2.753585871199     1.669495638645     0.501110079582
    CL          -4.117119356113    -0.814194435633     0.564866376347
    H           -1.851035991870    -2.486881277472     0.252591652628
    H            0.539001402148    -1.954414426634     0.005929845083
    H            4.073922324240     0.860888174725     1.317753637728
    H            4.373288182948     2.346581140101     0.426395312216
    H            4.742094023672    -0.114801766970    -0.748011134640
    H            4.057628798301     1.191029632456    -1.692202298477
    H            1.335988812388    -1.426454077098    -2.036685468876
    H            2.887421759577    -1.020830394112    -2.768675331616
    H            2.825119730515    -2.159398943686    -1.445976480728
    H            1.929792639216     1.857577704051     1.573302383357
    H            2.001682271766     2.620169849697    -0.004114639819

	Removing binary optimization data file.
	Cleaning optimization helper files.


Properties will be evaluated at   0.000000,   0.000000,   0.000000 [a0]
OEProp: No title given, name of density matrix used for the following properties is 'DF-MP2 relaxed density'
  Mulliken Charges: (a.u.)
   Center  Symbol    Alpha    Beta     Spin     Total
       1     C     3.12683  3.12683  0.00000 -0.25366
       2     C     3.13717  3.13717  0.00000 -0.27434
       3     C     3.05220  3.05220  0.00000 -0.10441
       4     C     2.99079  2.99079  0.00000  0.01841
       5     C     3.12891  3.12891  0.00000 -0.25782
       6     C     2.91089  2.91089  0.00000  0.17821
       7     C     3.07558  3.07558  0.00000 -0.15116
       8     C     3.09500  3.09500  0.00000 -0.19000
       9     C     2.95686  2.95686  0.00000  0.08628
      10     C     3.08769  3.08769  0.00000 -0.17539
      11     C     3.08269  3.08269  0.00000 -0.16538
      12     C     3.20457  3.20457  0.00000 -0.40913
      13     H     0.42305  0.42305  0.00000  0.15389
      14     H     0.41810  0.41810  0.00000  0.16379
      15    CL     8.56124  8.56124  0.00000 -0.12248
      16     H     0.41758  0.41758  0.00000  0.16484
      17     H     0.41632  0.41632  0.00000  0.16736
      18     H     0.43924  0.43924  0.00000  0.12152
      19     H     0.43426  0.43426  0.00000  0.13147
      20     H     0.43575  0.43575  0.00000  0.12850
      21     H     0.43875  0.43875  0.00000  0.12251
      22     H     0.43109  0.43109  0.00000  0.13781
      23     H     0.43417  0.43417  0.00000  0.13167
      24     H     0.43192  0.43192  0.00000  0.13616
      25     H     0.43162  0.43162  0.00000  0.13677
      26     H     0.43772  0.43772  0.00000  0.12456

   Total alpha = 51.00000, Total beta = 51.00000, Total charge = -0.00000

    Molecular point group: c1
    Full point group: C1

    Geometry (in Angstrom), charge = 0, multiplicity = 1:

       Center              X                  Y                   Z               Mass       
    ------------   -----------------  -----------------  -----------------  -----------------
         C            3.770506380256     1.445409538286     0.453605601733    12.000000000000
         C            2.270691235170     1.719668306906     0.551095976072    12.000000000000
         C            1.669140492499     0.505504011619    -0.107420638311    12.000000000000
         C            2.580254906684    -0.112320426888    -0.882901954950    12.000000000000
         C            3.908018774505     0.581289745947    -0.798170126016    12.000000000000
         C            0.266866787068     0.168112112622     0.052974079638    12.000000000000
         C           -0.178497260351    -1.155245143973     0.075524675681    12.000000000000
         C           -1.519424108565    -1.464122344608     0.229223397488    12.000000000000
         C           -2.439981852564    -0.438434855587     0.371957212265    12.000000000000
         C           -2.028536421962     0.884842412547     0.377881688200    12.000000000000
         C           -0.683748228433     1.176295920212     0.227497123931    12.000000000000
         C            2.384067487189    -1.239836756627    -1.829026794422    12.000000000000
         H           -0.368852948016     2.206446543287     0.233285537977     1.007825032230
         H           -2.753585871199     1.669495638645     0.501110079582     1.007825032230
         CL          -4.117119356113    -0.814194435633     0.564866376347    34.968852682000
         H           -1.851035991870    -2.486881277472     0.252591652628     1.007825032230
         H            0.539001402148    -1.954414426634     0.005929845083     1.007825032230
         H            4.073922324240     0.860888174725     1.317753637728     1.007825032230
         H            4.373288182948     2.346581140101     0.426395312216     1.007825032230
         H            4.742094023672    -0.114801766970    -0.748011134640     1.007825032230
         H            4.057628798301     1.191029632456    -1.692202298477     1.007825032230
         H            1.335988812388    -1.426454077098    -2.036685468876     1.007825032230
         H            2.887421759577    -1.020830394112    -2.768675331616     1.007825032230
         H            2.825119730515    -2.159398943686    -1.445976480728     1.007825032230
         H            1.929792639216     1.857577704051     1.573302383357     1.007825032230
         H            2.001682271766     2.620169849697    -0.004114639819     1.007825032230



  Variable Map:
  ----------------------------------------------------------------------------
  "CURRENT CORRELATION ENERGY"           =>      -2.358520406780
  "CURRENT DIPOLE X"                     =>       2.497421345849
  "CURRENT DIPOLE Y"                     =>       0.396230827211
  "CURRENT DIPOLE Z"                     =>      -0.517314980960
  "CURRENT ENERGY"                       =>    -924.009052269630
  "CURRENT REFERENCE ENERGY"             =>    -921.650531862850
  "CUSTOM SCS-MP2 CORRELATION ENERGY"    =>      -2.332542387414
  "CUSTOM SCS-MP2 TOTAL ENERGY"          =>    -923.983074250264
  "HF TOTAL ENERGY"                      =>    -921.650531862850
  "MP2 CORRELATION ENERGY"               =>      -2.358520406780
  "MP2 DOUBLES ENERGY"                   =>      -2.358520406780
  "MP2 OPPOSITE-SPIN CORRELATION ENERGY" =>      -1.784271829023
  "MP2 SAME-SPIN CORRELATION ENERGY"     =>      -0.574248577756
  "MP2 SINGLES ENERGY"                   =>      -0.000000000000
  "MP2 TOTAL ENERGY"                     =>    -924.009052269630
  "NUCLEAR REPULSION ENERGY"             =>     822.821616535967
  "ONE-ELECTRON ENERGY"                  =>   -2894.121099376038
  "OPTIMIZATION ITERATIONS"              =>       7.000000000000
  "PCM POLARIZATION ENERGY"              =>       0.000000000000
  "PE ENERGY"                            =>       0.000000000000
  "SCF DIPOLE X"                         =>       2.497421345849
  "SCF DIPOLE Y"                         =>       0.396230827211
  "SCF DIPOLE Z"                         =>      -0.517314980960
  "SCF ITERATION ENERGY"                 =>    -921.650531862850
  "SCF ITERATIONS"                       =>      11.000000000000
  "SCF TOTAL ENERGY"                     =>    -921.650531862850
  "SCS-MP2 CORRELATION ENERGY"           =>      -2.332542387414
  "SCS-MP2 TOTAL ENERGY"                 =>    -923.983074250264
  "TWO-ELECTRON ENERGY"                  =>    1149.648950977221



    Psi4 stopped on: Saturday, 11 December 2021 07:12PM
    Psi4 wall time for execution: 1:24:39.93

*** Psi4 exiting successfully. Buy a developer a beer!
