
    -----------------------------------------------------------------------
          Psi4: An Open-Source Ab Initio Electronic Structure Package
                               Psi4 1.4 release

                         Git: Rev {HEAD} 9485035 


    D. G. A. Smith, L. A. Burns, A. C. Simmonett, R. M. Parrish,
    M. C. Schieber, R. Galvelis, P. Kraus, H. Kruse, R. Di Remigio,
    A. Alenaizan, A. M. James, S. Lehtola, J. P. Misiewicz, M. Scheurer,
    R. A. Shaw, J. B. Schriber, Y. Xie, Z. L. Glick, D. A. Sirianni,
    J. S. O'Brien, J. M. Waldrop, A. Kumar, E. G. Hohenstein,
    B. P. Pritchard, B. R. Brooks, H. F. Schaefer III, A. Yu. Sokolov,
    K. Patkowski, A. E. DePrince III, U. Bozkaya, R. A. King,
    F. A. Evangelista, J. M. Turney, T. D. Crawford, C. D. Sherrill,
    J. Chem. Phys. 152(18) 184108 (2020). https://doi.org/10.1063/5.0006002

                            Additional Code Authors
    E. T. Seidl, C. L. Janssen, E. F. Valeev, M. L. Leininger,
    J. F. Gonthier, R. M. Richard, H. R. McAlexander, M. Saitow, X. Wang,
    P. Verma, and M. H. Lechner

             Previous Authors, Complete List of Code Contributors,
                       and Citations for Specific Modules
    https://github.com/psi4/psi4/blob/master/codemeta.json
    https://github.com/psi4/psi4/graphs/contributors
    http://psicode.org/psi4manual/master/introduction.html#citing-psifour

    -----------------------------------------------------------------------


    Psi4 started on: Sunday, 12 December 2021 04:28PM

    Process ID: 3778495
    Host:       skystd14.palmetto.clemson.edu
    PSIDATADIR: /home/maxbuskirk/.conda/envs/psifour/share/psi4
    Memory:     500.0 MiB
    Threads:    1
    
  ==> Input File <==

--------------------------------------------------------------------------
molecule mol {
0 1
 C     0.355130     0.111221    -1.467412
 C    -0.000000    -0.000000     0.000000
 C     0.828100     0.881905     0.953535
 C     2.091555     0.051810     1.254924
 C     2.370953    -0.722993    -0.049363
 C     0.983556    -0.988346    -0.633510
 C    -1.373576    -0.413221     0.414448
 C    -1.542792    -1.321567     1.480545
 C    -2.825059    -1.692334     1.911870
 C    -3.961673    -1.159299     1.279913
 C    -3.805653    -0.253936     0.218219
 C    -2.519836     0.117392    -0.208007
 H    -2.398432     0.829298    -1.030811
 H    -4.686419     0.165723    -0.277661
Cl    -5.553554    -1.622698     1.807905
 H    -2.939181    -2.402495     2.736730
 H    -0.656700    -1.746978     1.964470
 H     0.659437    -2.015061    -0.827996
 H    -0.405740    -0.188168    -2.193765
 H     0.996446     0.943276    -1.777222
 H     2.921789    -1.659184     0.134099
 H     2.979683    -0.115336    -0.742780
 H     1.856488    -0.672951     2.054626
 H     2.945544     0.661232     1.596113
 H     0.256631     1.122533     1.863868
 H     1.092347     1.837771     0.466059
}

set scf_type df
set basis cc-pVDZ
set reference rhf

mol.update_geometry()
mol.symmetrize(1e-3)

e, wfn = optimize('CCSD', return_wfn=True)
oeprop(wfn, "MULLIKEN_CHARGES")
mol.print_out()
print_variables()
--------------------------------------------------------------------------

Scratch directory: /local_scratch/pbs.4132542.pbs02/
gradient() will perform analytic gradient computation.

*** tstart() called on skystd14.palmetto.clemson.edu
*** at Sun Dec 12 16:28:51 2021

   => Loading Basis Set <=

    Name: CC-PVDZ
    Role: ORBITAL
    Keyword: BASIS
    atoms 1-12         entry C          line   138 file /home/maxbuskirk/.conda/envs/psifour/share/psi4/basis/cc-pvdz.gbs 
    atoms 13-14, 16-26 entry H          line    22 file /home/maxbuskirk/.conda/envs/psifour/share/psi4/basis/cc-pvdz.gbs 
    atoms 15           entry CL         line   658 file /home/maxbuskirk/.conda/envs/psifour/share/psi4/basis/cc-pvdz.gbs 


         ---------------------------------------------------------
                                   SCF
               by Justin Turney, Rob Parrish, Andy Simmonett
                          and Daniel G. A. Smith
                              RHF Reference
                        1 Threads,    500 MiB Core
         ---------------------------------------------------------

  ==> Geometry <==

    Molecular point group: c1
    Full point group: C1

    Geometry (in Angstrom), charge = 0, multiplicity = 1:

       Center              X                  Y                   Z               Mass       
    ------------   -----------------  -----------------  -----------------  -----------------
         C            1.939706593143     0.760367789201    -2.139451782716    12.000000000000
         C            1.584576593143     0.649146789201    -0.672039782716    12.000000000000
         C            2.412676593143     1.531051789201     0.281495217284    12.000000000000
         C            3.676131593143     0.700956789201     0.582884217284    12.000000000000
         C            3.955529593143    -0.073846210799    -0.721402782716    12.000000000000
         C            2.568132593143    -0.339199210799    -1.305549782716    12.000000000000
         C            0.211000593143     0.235925789201    -0.257591782716    12.000000000000
         C            0.041784593143    -0.672420210799     0.808505217284    12.000000000000
         C           -1.240482406857    -1.043187210799     1.239830217284    12.000000000000
         C           -2.377096406857    -0.510152210799     0.607873217284    12.000000000000
         C           -2.221076406857     0.395210789201    -0.453820782716    12.000000000000
         C           -0.935259406857     0.766538789201    -0.880046782716    12.000000000000
         H           -0.813855406857     1.478444789201    -1.702850782716     1.007825032230
         H           -3.101842406857     0.814869789201    -0.949700782716     1.007825032230
         CL          -3.968977406857    -0.973551210799     1.135865217284    34.968852682000
         H           -1.354604406857    -1.753348210799     2.064690217284     1.007825032230
         H            0.927876593143    -1.097831210799     1.292430217284     1.007825032230
         H            2.244013593143    -1.365914210799    -1.500035782716     1.007825032230
         H            1.178836593143     0.460978789201    -2.865804782716     1.007825032230
         H            2.581022593143     1.592422789201    -2.449261782716     1.007825032230
         H            4.506365593143    -1.010037210799    -0.537940782716     1.007825032230
         H            4.564259593143     0.533810789201    -1.414819782716     1.007825032230
         H            3.441064593143    -0.023804210799     1.382586217284     1.007825032230
         H            4.530120593143     1.310378789201     0.924073217284     1.007825032230
         H            1.841207593143     1.771679789201     1.191828217284     1.007825032230
         H            2.676923593143     2.486917789201    -0.205980782716     1.007825032230

  Running in c1 symmetry.

  Rotational constants: A =      0.07215  B =      0.01068  C =      0.01008 [cm^-1]
  Rotational constants: A =   2163.05910  B =    320.20439  C =    302.21330 [MHz]
  Nuclear repulsion =  828.497759194213927

  Charge       = 0
  Multiplicity = 1
  Electrons    = 102
  Nalpha       = 51
  Nbeta        = 51

  ==> Algorithm <==

  SCF Algorithm Type is DF.
  DIIS enabled.
  MOM disabled.
  Fractional occupation disabled.
  Guess Type is SAD.
  Energy threshold   = 1.00e-10
  Density threshold  = 1.00e-10
  Integral threshold = 1.00e-12

  ==> Primary Basis <==

  Basis Set: CC-PVDZ
    Blend: CC-PVDZ
    Number of shells: 119
    Number of basis functions: 251
    Number of Cartesian functions: 264
    Spherical Harmonics?: true
    Max angular momentum: 2

   => Loading Basis Set <=

    Name: (CC-PVDZ AUX)
    Role: JKFIT
    Keyword: DF_BASIS_SCF
    atoms 1-12         entry C          line   121 file /home/maxbuskirk/.conda/envs/psifour/share/psi4/basis/cc-pvdz-jkfit.gbs 
    atoms 13-14, 16-26 entry H          line    51 file /home/maxbuskirk/.conda/envs/psifour/share/psi4/basis/cc-pvdz-jkfit.gbs 
    atoms 15           entry CL         line   667 file /home/maxbuskirk/.conda/envs/psifour/share/psi4/basis/cc-pvdz-jkfit.gbs 

  ==> Integral Setup <==

  ==> DiskDFJK: Density-Fitted J/K Matrices <==

    J tasked:                  Yes
    K tasked:                  Yes
    wK tasked:                  No
    OpenMP threads:              1
    Integrals threads:           1
    Memory [MiB]:              375
    Algorithm:                Core
    Integral Cache:           NONE
    Schwarz Cutoff:          1E-12
    Fitting Condition:       1E-10

   => Auxiliary Basis Set <=

  Basis Set: (CC-PVDZ AUX)
    Blend: CC-PVDZ-JKFIT
    Number of shells: 441
    Number of basis functions: 1251
    Number of Cartesian functions: 1427
    Spherical Harmonics?: true
    Max angular momentum: 3

  Minimum eigenvalue in the overlap matrix is 3.0810806743E-04.
  Reciprocal condition number of the overlap matrix is 4.4509494434E-05.
    Using symmetric orthogonalization.

  ==> Pre-Iterations <==

  SCF Guess: Superposition of Atomic Densities via on-the-fly atomic UHF (no occupation information).

   -------------------------
    Irrep   Nso     Nmo    
   -------------------------
     A        251     251 
   -------------------------
    Total     251     251
   -------------------------

  ==> Iterations <==

                           Total Energy        Delta E     RMS |[F,P]|

   @DF-RHF iter SAD:  -921.31134273931059   -9.21311e+02   0.00000e+00 
   @DF-RHF iter   1:  -921.24566228678179    6.56805e-02   2.32637e-03 DIIS
   @DF-RHF iter   2:  -921.44537983796204   -1.99718e-01   1.12986e-03 DIIS
   @DF-RHF iter   3:  -921.48747241273611   -4.20926e-02   2.98762e-04 DIIS
   @DF-RHF iter   4:  -921.49150266066931   -4.03025e-03   1.28385e-04 DIIS
   @DF-RHF iter   5:  -921.49211439071485   -6.11730e-04   2.27931e-05 DIIS
   @DF-RHF iter   6:  -921.49214920518341   -3.48145e-05   9.31312e-06 DIIS
   @DF-RHF iter   7:  -921.49215619225618   -6.98707e-06   3.94094e-06 DIIS
   @DF-RHF iter   8:  -921.49215841195257   -2.21970e-06   2.01678e-06 DIIS
   @DF-RHF iter   9:  -921.49215916311107   -7.51158e-07   7.56466e-07 DIIS
   @DF-RHF iter  10:  -921.49215926236423   -9.92532e-08   2.86897e-07 DIIS
   @DF-RHF iter  11:  -921.49215927289129   -1.05271e-08   1.07118e-07 DIIS
   @DF-RHF iter  12:  -921.49215927386672   -9.75433e-10   3.15660e-08 DIIS
   @DF-RHF iter  13:  -921.49215927394221   -7.54881e-11   9.21281e-09 DIIS
   @DF-RHF iter  14:  -921.49215927394971   -7.50333e-12   2.33279e-09 DIIS
   @DF-RHF iter  15:  -921.49215927394971    0.00000e+00   7.67833e-10 DIIS
   @DF-RHF iter  16:  -921.49215927395119   -1.47793e-12   3.98024e-10 DIIS
   @DF-RHF iter  17:  -921.49215927394675    4.43379e-12   1.95476e-10 DIIS
   @DF-RHF iter  18:  -921.49215927394539    1.36424e-12   8.70882e-11 DIIS
  Energy and wave function converged.


  ==> Post-Iterations <==

    Orbital Energies [Eh]
    ---------------------

    Doubly Occupied:                                                      

       1A   -104.832154     2A    -11.305213     3A    -11.257395  
       4A    -11.256926     5A    -11.254935     6A    -11.251968  
       7A    -11.251249     8A    -11.244595     9A    -11.238149  
      10A    -11.237236    11A    -11.233271    12A    -11.232636  
      13A    -11.231336    14A    -10.559000    15A     -8.026660  
      16A     -8.023217    17A     -8.023113    18A     -1.192861  
      19A     -1.174879    20A     -1.112453    21A     -1.038010  
      22A     -1.023083    23A     -1.002014    24A     -0.953459  
      25A     -0.850188    26A     -0.835388    27A     -0.815557  
      28A     -0.778453    29A     -0.746605    30A     -0.698885  
      31A     -0.651818    32A     -0.646123    33A     -0.632930  
      34A     -0.623519    35A     -0.593016    36A     -0.579764  
      37A     -0.570680    38A     -0.568898    39A     -0.538426  
      40A     -0.529249    41A     -0.510731    42A     -0.487698  
      43A     -0.483628    44A     -0.475929    45A     -0.473134  
      46A     -0.455489    47A     -0.450167    48A     -0.412298  
      49A     -0.391631    50A     -0.345187    51A     -0.318370  

    Virtual:                                                              

      52A      0.117765    53A      0.122000    54A      0.169744  
      55A      0.187027    56A      0.195940    57A      0.204251  
      58A      0.225903    59A      0.230180    60A      0.240528  
      61A      0.248306    62A      0.250249    63A      0.253967  
      64A      0.259531    65A      0.276548    66A      0.295273  
      67A      0.298081    68A      0.330068    69A      0.337408  
      70A      0.347722    71A      0.364949    72A      0.383008  
      73A      0.402377    74A      0.409746    75A      0.435039  
      76A      0.448190    77A      0.473466    78A      0.489484  
      79A      0.498377    80A      0.513456    81A      0.564091  
      82A      0.598801    83A      0.617412    84A      0.624635  
      85A      0.633506    86A      0.644750    87A      0.653265  
      88A      0.660118    89A      0.674613    90A      0.687867  
      91A      0.699586    92A      0.709461    93A      0.712850  
      94A      0.715850    95A      0.721601    96A      0.731954  
      97A      0.734604    98A      0.737488    99A      0.751940  
     100A      0.776885   101A      0.777212   102A      0.784253  
     103A      0.799537   104A      0.819249   105A      0.825581  
     106A      0.843001   107A      0.853427   108A      0.860551  
     109A      0.865318   110A      0.871187   111A      0.877546  
     112A      0.879507   113A      0.885945   114A      0.889194  
     115A      0.896079   116A      0.902527   117A      0.903918  
     118A      0.908765   119A      0.917061   120A      0.918806  
     121A      0.934763   122A      0.938860   123A      0.945204  
     124A      0.964441   125A      0.968133   126A      0.982459  
     127A      0.988348   128A      0.995844   129A      1.020987  
     130A      1.043779   131A      1.074249   132A      1.122312  
     133A      1.130350   134A      1.136561   135A      1.148088  
     136A      1.151117   137A      1.189701   138A      1.207120  
     139A      1.217890   140A      1.231109   141A      1.257207  
     142A      1.268292   143A      1.289474   144A      1.293046  
     145A      1.311134   146A      1.334268   147A      1.358711  
     148A      1.376423   149A      1.383714   150A      1.411880  
     151A      1.441207   152A      1.454303   153A      1.468818  
     154A      1.478424   155A      1.482796   156A      1.485486  
     157A      1.518257   158A      1.559487   159A      1.597464  
     160A      1.605815   161A      1.639318   162A      1.650040  
     163A      1.691594   164A      1.701038   165A      1.718887  
     166A      1.734999   167A      1.747657   168A      1.772836  
     169A      1.782581   170A      1.799307   171A      1.802812  
     172A      1.814382   173A      1.824664   174A      1.843780  
     175A      1.861164   176A      1.870251   177A      1.877200  
     178A      1.895265   179A      1.899683   180A      1.904922  
     181A      1.916304   182A      1.923173   183A      1.927016  
     184A      1.940406   185A      1.947135   186A      1.953707  
     187A      1.969327   188A      1.972667   189A      1.989942  
     190A      2.001001   191A      2.013164   192A      2.026753  
     193A      2.032081   194A      2.036003   195A      2.046700  
     196A      2.050720   197A      2.069182   198A      2.076553  
     199A      2.094099   200A      2.108221   201A      2.116057  
     202A      2.130263   203A      2.146713   204A      2.183511  
     205A      2.192631   206A      2.203952   207A      2.225888  
     208A      2.239162   209A      2.243291   210A      2.255580  
     211A      2.260984   212A      2.284025   213A      2.289886  
     214A      2.319729   215A      2.350705   216A      2.368554  
     217A      2.380350   218A      2.405411   219A      2.412757  
     220A      2.436804   221A      2.444914   222A      2.451843  
     223A      2.466741   224A      2.477670   225A      2.531562  
     226A      2.556925   227A      2.590183   228A      2.604183  
     229A      2.628150   230A      2.649271   231A      2.678480  
     232A      2.716069   233A      2.744646   234A      2.765492  
     235A      2.772471   236A      2.780897   237A      2.795492  
     238A      2.836591   239A      2.856245   240A      2.909889  
     241A      2.912312   242A      2.932239   243A      2.983220  
     244A      2.996963   245A      3.004726   246A      3.038420  
     247A      3.076096   248A      3.139743   249A      3.222080  
     250A      3.257960   251A      3.755695  

    Final Occupation by Irrep:
              A 
    DOCC [    51 ]

  @DF-RHF Final Energy:  -921.49215927394539

   => Energetics <=

    Nuclear Repulsion Energy =            828.4977591942139270
    One-Electron Energy =               -2905.1406940037932145
    Two-Electron Energy =                1155.1507755356340112
    Total Energy =                       -921.4921592739453899

Computation Completed


Properties will be evaluated at   0.000000,   0.000000,   0.000000 [a0]

Properties computed using the SCF density matrix

  Nuclear Dipole Moment: [e a0]
     X:    25.4027      Y:     5.7647      Z:    -5.5123

  Electronic Dipole Moment: [e a0]
     X:   -24.5192      Y:    -5.5607      Z:     5.2824

  Dipole Moment: [e a0]
     X:     0.8834      Y:     0.2041      Z:    -0.2299     Total:     0.9354

  Dipole Moment: [D]
     X:     2.2455      Y:     0.5186      Z:    -0.5843     Total:     2.3775


*** tstop() called on skystd14.palmetto.clemson.edu at Sun Dec 12 16:29:13 2021
Module time:
	user time   =      21.20 seconds =       0.35 minutes
	system time =       0.70 seconds =       0.01 minutes
	total time  =         22 seconds =       0.37 minutes
Total time:
	user time   =      21.20 seconds =       0.35 minutes
	system time =       0.70 seconds =       0.01 minutes
	total time  =         22 seconds =       0.37 minutes
 MINTS: Wrapper to libmints.
   by Justin Turney

   Calculation information:
      Number of threads:                 1
      Number of atoms:                  26
      Number of AO shells:             119
      Number of SO shells:             119
      Number of primitives:            379
      Number of atomic orbitals:       264
      Number of basis functions:       251

      Number of irreps:                  1
      Integral cutoff                 1.00e-12
      Number of functions per irrep: [ 251 ]

 OEINTS: Overlap, kinetic, potential, dipole, and quadrupole integrals
         stored in file 35.

      Computing two-electron integrals...done
      Computed 315969364 non-zero two-electron integrals.
        Stored in file 33.


*** tstart() called on skystd14.palmetto.clemson.edu
*** at Sun Dec 12 16:32:55 2021


	Wfn Parameters:
	--------------------
	Wavefunction         = CCSD
	Number of irreps     = 1
	Number of MOs        = 251
	Number of active MOs = 251
	AO-Basis             = NONE
	Semicanonical        = false
	Reference            = RHF
	Print Level          = 1

	IRREP	# MOs	# FZDC	# DOCC	# SOCC	# VIRT	# FZVR
	-----	-----	------	------	------	------	------
	 A	   251	    0	    51	    0	    200	    0
	Transforming integrals...
	IWL integrals will be deleted.
	(OO|OO)...
	Presorting SO-basis two-electron integrals.
	Sorting File: SO Ints (nn|nn) nbuckets = 16
	Constructing frozen core operators
	Starting first half-transformation.
	Sorting half-transformed integrals.
	First half integral transformation complete.
	Starting second half-transformation.
	Two-electron integral transformation complete.
	(OO|OV)...
	Starting second half-transformation.
	Two-electron integral transformation complete.
	(OO|VV)...
	Starting second half-transformation.
	Two-electron integral transformation complete.
	(OV|OO)...
	Starting first half-transformation.
	Sorting half-transformed integrals.
	First half integral transformation complete.
	Starting second half-transformation.
	Two-electron integral transformation complete.
	(OV|OV)...
	Starting second half-transformation.
	Two-electron integral transformation complete.
	(OV|VV)...
	Starting second half-transformation.
	Two-electron integral transformation complete.
	(VV|OO)...
	Starting first half-transformation.
	Sorting half-transformed integrals.
	First half integral transformation complete.
	Starting second half-transformation.
	Two-electron integral transformation complete.
	(VV|OV)...
	Starting second half-transformation.
	Two-electron integral transformation complete.
	(VV|VV)...
	Starting second half-transformation.
	Two-electron integral transformation complete.
	Frozen core energy     =      0.00000000000000

	Size of irrep 0 of <ab|cd> integrals:   1600.000 (MW) /  12800.000 (MB)
	Total:                                  1600.000 (MW) /  12800.000 (MB)

	Size of irrep 0 of <ia|bc> integrals:    408.000 (MW) /   3264.000 (MB)
	Total:                                   408.000 (MW) /   3264.000 (MB)

	Size of irrep 0 of tijab amplitudes:     104.040 (MW) /    832.320 (MB)
	Total:                                   104.040 (MW) /    832.320 (MB)

