
    -----------------------------------------------------------------------
          Psi4: An Open-Source Ab Initio Electronic Structure Package
                               Psi4 1.4 release

                         Git: Rev {HEAD} 9485035 


    D. G. A. Smith, L. A. Burns, A. C. Simmonett, R. M. Parrish,
    M. C. Schieber, R. Galvelis, P. Kraus, H. Kruse, R. Di Remigio,
    A. Alenaizan, A. M. James, S. Lehtola, J. P. Misiewicz, M. Scheurer,
    R. A. Shaw, J. B. Schriber, Y. Xie, Z. L. Glick, D. A. Sirianni,
    J. S. O'Brien, J. M. Waldrop, A. Kumar, E. G. Hohenstein,
    B. P. Pritchard, B. R. Brooks, H. F. Schaefer III, A. Yu. Sokolov,
    K. Patkowski, A. E. DePrince III, U. Bozkaya, R. A. King,
    F. A. Evangelista, J. M. Turney, T. D. Crawford, C. D. Sherrill,
    J. Chem. Phys. 152(18) 184108 (2020). https://doi.org/10.1063/5.0006002

                            Additional Code Authors
    E. T. Seidl, C. L. Janssen, E. F. Valeev, M. L. Leininger,
    J. F. Gonthier, R. M. Richard, H. R. McAlexander, M. Saitow, X. Wang,
    P. Verma, and M. H. Lechner

             Previous Authors, Complete List of Code Contributors,
                       and Citations for Specific Modules
    https://github.com/psi4/psi4/blob/master/codemeta.json
    https://github.com/psi4/psi4/graphs/contributors
    http://psicode.org/psi4manual/master/introduction.html#citing-psifour

    -----------------------------------------------------------------------


    Psi4 started on: Wednesday, 09 February 2022 03:53AM

    Process ID: 3568317
    Host:       skylm003.palmetto.clemson.edu
    PSIDATADIR: /home/maxbuskirk/.conda/envs/psifour/share/psi4
    Memory:     500.0 MiB
    Threads:    1
    
  ==> Input File <==

--------------------------------------------------------------------------
memory 62 GB

molecule mol {
0 1
 C     0.355130     0.111221    -1.467412
 C    -0.000000    -0.000000     0.000000
 C     0.828100     0.881905     0.953535
 C     2.091555     0.051810     1.254924
 C     2.370953    -0.722993    -0.049363
 C     0.983556    -0.988346    -0.633510
 C    -1.373576    -0.413221     0.414448
 C    -1.542792    -1.321567     1.480545
 C    -2.825059    -1.692334     1.911870
 C    -3.961673    -1.159299     1.279913
 C    -3.805653    -0.253936     0.218219
 C    -2.519836     0.117392    -0.208007
 H    -2.398432     0.829298    -1.030811
 H    -4.686419     0.165723    -0.277661
Cl    -5.553554    -1.622698     1.807905
 H    -2.939181    -2.402495     2.736730
 H    -0.656700    -1.746978     1.964470
 H     0.659437    -2.015061    -0.827996
 H    -0.405740    -0.188168    -2.193765
 H     0.996446     0.943276    -1.777222
 H     2.921789    -1.659184     0.134099
 H     2.979683    -0.115336    -0.742780
 H     1.856488    -0.672951     2.054626
 H     2.945544     0.661232     1.596113
 H     0.256631     1.122533     1.863868
 H     1.092347     1.837771     0.466059
}

set scf_type df
set basis cc-pVDZ
set reference rhf

mol.update_geometry()
mol.symmetrize(1e-3)

e, wfn = optimize('CCSD', return_wfn=True)
oeprop(wfn, "MULLIKEN_CHARGES")
mol.print_out()
print_variables()
--------------------------------------------------------------------------

  Memory set to  57.742 GiB by Python driver.

Scratch directory: /scratch1/maxbuskirk/
gradient() will perform analytic gradient computation.

*** tstart() called on skylm003.palmetto.clemson.edu
*** at Wed Feb  9 03:54:00 2022

   => Loading Basis Set <=

    Name: CC-PVDZ
    Role: ORBITAL
    Keyword: BASIS
    atoms 1-12         entry C          line   138 file /home/maxbuskirk/.conda/envs/psifour/share/psi4/basis/cc-pvdz.gbs 
    atoms 13-14, 16-26 entry H          line    22 file /home/maxbuskirk/.conda/envs/psifour/share/psi4/basis/cc-pvdz.gbs 
    atoms 15           entry CL         line   658 file /home/maxbuskirk/.conda/envs/psifour/share/psi4/basis/cc-pvdz.gbs 


         ---------------------------------------------------------
                                   SCF
               by Justin Turney, Rob Parrish, Andy Simmonett
                          and Daniel G. A. Smith
                              RHF Reference
                        1 Threads,  59127 MiB Core
         ---------------------------------------------------------

  ==> Geometry <==

    Molecular point group: c1
    Full point group: C1

    Geometry (in Angstrom), charge = 0, multiplicity = 1:

       Center              X                  Y                   Z               Mass       
    ------------   -----------------  -----------------  -----------------  -----------------
         C            1.939706593143     0.760367789201    -2.139451782716    12.000000000000
         C            1.584576593143     0.649146789201    -0.672039782716    12.000000000000
         C            2.412676593143     1.531051789201     0.281495217284    12.000000000000
         C            3.676131593143     0.700956789201     0.582884217284    12.000000000000
         C            3.955529593143    -0.073846210799    -0.721402782716    12.000000000000
         C            2.568132593143    -0.339199210799    -1.305549782716    12.000000000000
         C            0.211000593143     0.235925789201    -0.257591782716    12.000000000000
         C            0.041784593143    -0.672420210799     0.808505217284    12.000000000000
         C           -1.240482406857    -1.043187210799     1.239830217284    12.000000000000
         C           -2.377096406857    -0.510152210799     0.607873217284    12.000000000000
         C           -2.221076406857     0.395210789201    -0.453820782716    12.000000000000
         C           -0.935259406857     0.766538789201    -0.880046782716    12.000000000000
         H           -0.813855406857     1.478444789201    -1.702850782716     1.007825032230
         H           -3.101842406857     0.814869789201    -0.949700782716     1.007825032230
         CL          -3.968977406857    -0.973551210799     1.135865217284    34.968852682000
         H           -1.354604406857    -1.753348210799     2.064690217284     1.007825032230
         H            0.927876593143    -1.097831210799     1.292430217284     1.007825032230
         H            2.244013593143    -1.365914210799    -1.500035782716     1.007825032230
         H            1.178836593143     0.460978789201    -2.865804782716     1.007825032230
         H            2.581022593143     1.592422789201    -2.449261782716     1.007825032230
         H            4.506365593143    -1.010037210799    -0.537940782716     1.007825032230
         H            4.564259593143     0.533810789201    -1.414819782716     1.007825032230
         H            3.441064593143    -0.023804210799     1.382586217284     1.007825032230
         H            4.530120593143     1.310378789201     0.924073217284     1.007825032230
         H            1.841207593143     1.771679789201     1.191828217284     1.007825032230
         H            2.676923593143     2.486917789201    -0.205980782716     1.007825032230

  Running in c1 symmetry.

  Rotational constants: A =      0.07215  B =      0.01068  C =      0.01008 [cm^-1]
  Rotational constants: A =   2163.05910  B =    320.20439  C =    302.21330 [MHz]
  Nuclear repulsion =  828.497759194213927

  Charge       = 0
  Multiplicity = 1
  Electrons    = 102
  Nalpha       = 51
  Nbeta        = 51

  ==> Algorithm <==

  SCF Algorithm Type is DF.
  DIIS enabled.
  MOM disabled.
  Fractional occupation disabled.
  Guess Type is SAD.
  Energy threshold   = 1.00e-10
  Density threshold  = 1.00e-10
  Integral threshold = 1.00e-12

  ==> Primary Basis <==

  Basis Set: CC-PVDZ
    Blend: CC-PVDZ
    Number of shells: 119
    Number of basis functions: 251
    Number of Cartesian functions: 264
    Spherical Harmonics?: true
    Max angular momentum: 2

   => Loading Basis Set <=

    Name: (CC-PVDZ AUX)
    Role: JKFIT
    Keyword: DF_BASIS_SCF
    atoms 1-12         entry C          line   121 file /home/maxbuskirk/.conda/envs/psifour/share/psi4/basis/cc-pvdz-jkfit.gbs 
    atoms 13-14, 16-26 entry H          line    51 file /home/maxbuskirk/.conda/envs/psifour/share/psi4/basis/cc-pvdz-jkfit.gbs 
    atoms 15           entry CL         line   667 file /home/maxbuskirk/.conda/envs/psifour/share/psi4/basis/cc-pvdz-jkfit.gbs 

  ==> Integral Setup <==

  DFHelper Memory: AOs need 0.546 GiB; user supplied 43.306 GiB. Using in-core AOs.

  ==> MemDFJK: Density-Fitted J/K Matrices <==

    J tasked:                   Yes
    K tasked:                   Yes
    wK tasked:                   No
    OpenMP threads:               1
    Memory [MiB]:             44345
    Algorithm:                 Core
    Schwarz Cutoff:           1E-12
    Mask sparsity (%):      10.8379
    Fitting Condition:        1E-10

   => Auxiliary Basis Set <=

  Basis Set: (CC-PVDZ AUX)
    Blend: CC-PVDZ-JKFIT
    Number of shells: 441
    Number of basis functions: 1251
    Number of Cartesian functions: 1427
    Spherical Harmonics?: true
    Max angular momentum: 3

  Minimum eigenvalue in the overlap matrix is 3.0810806743E-04.
  Reciprocal condition number of the overlap matrix is 4.4509494434E-05.
    Using symmetric orthogonalization.

  ==> Pre-Iterations <==

  SCF Guess: Superposition of Atomic Densities via on-the-fly atomic UHF (no occupation information).

   -------------------------
    Irrep   Nso     Nmo    
   -------------------------
     A        251     251 
   -------------------------
    Total     251     251
   -------------------------

  ==> Iterations <==

                           Total Energy        Delta E     RMS |[F,P]|

   @DF-RHF iter SAD:  -921.31134273933230   -9.21311e+02   0.00000e+00 
   @DF-RHF iter   1:  -921.24566228680226    6.56805e-02   2.32637e-03 DIIS
   @DF-RHF iter   2:  -921.44537983798534   -1.99718e-01   1.12986e-03 DIIS
   @DF-RHF iter   3:  -921.48747241275851   -4.20926e-02   2.98762e-04 DIIS
   @DF-RHF iter   4:  -921.49150266069057   -4.03025e-03   1.28385e-04 DIIS
   @DF-RHF iter   5:  -921.49211439073576   -6.11730e-04   2.27931e-05 DIIS
   @DF-RHF iter   6:  -921.49214920520512   -3.48145e-05   9.31312e-06 DIIS
   @DF-RHF iter   7:  -921.49215619227664   -6.98707e-06   3.94094e-06 DIIS
   @DF-RHF iter   8:  -921.49215841197417   -2.21970e-06   2.01678e-06 DIIS
   @DF-RHF iter   9:  -921.49215916313096   -7.51157e-07   7.56466e-07 DIIS
   @DF-RHF iter  10:  -921.49215926238446   -9.92535e-08   2.86897e-07 DIIS
   @DF-RHF iter  11:  -921.49215927291357   -1.05291e-08   1.07118e-07 DIIS
   @DF-RHF iter  12:  -921.49215927388616   -9.72591e-10   3.15660e-08 DIIS
   @DF-RHF iter  13:  -921.49215927396335   -7.71934e-11   9.21281e-09 DIIS
   @DF-RHF iter  14:  -921.49215927396926   -5.91172e-12   2.33279e-09 DIIS
   @DF-RHF iter  15:  -921.49215927396665    2.61480e-12   7.67833e-10 DIIS
   @DF-RHF iter  16:  -921.49215927396995   -3.29692e-12   3.98024e-10 DIIS
   @DF-RHF iter  17:  -921.49215927396699    2.95586e-12   1.95476e-10 DIIS
   @DF-RHF iter  18:  -921.49215927396529    1.70530e-12   8.70882e-11 DIIS
  Energy and wave function converged.


  ==> Post-Iterations <==

    Orbital Energies [Eh]
    ---------------------

    Doubly Occupied:                                                      

       1A   -104.832154     2A    -11.305213     3A    -11.257395  
       4A    -11.256926     5A    -11.254935     6A    -11.251968  
       7A    -11.251249     8A    -11.244595     9A    -11.238149  
      10A    -11.237236    11A    -11.233271    12A    -11.232636  
      13A    -11.231336    14A    -10.559000    15A     -8.026660  
      16A     -8.023217    17A     -8.023113    18A     -1.192861  
      19A     -1.174879    20A     -1.112453    21A     -1.038010  
      22A     -1.023083    23A     -1.002014    24A     -0.953459  
      25A     -0.850188    26A     -0.835388    27A     -0.815557  
      28A     -0.778453    29A     -0.746605    30A     -0.698885  
      31A     -0.651818    32A     -0.646123    33A     -0.632930  
      34A     -0.623519    35A     -0.593016    36A     -0.579764  
      37A     -0.570680    38A     -0.568898    39A     -0.538426  
      40A     -0.529249    41A     -0.510731    42A     -0.487698  
      43A     -0.483628    44A     -0.475929    45A     -0.473134  
      46A     -0.455489    47A     -0.450167    48A     -0.412298  
      49A     -0.391631    50A     -0.345187    51A     -0.318370  

    Virtual:                                                              

      52A      0.117765    53A      0.122000    54A      0.169744  
      55A      0.187027    56A      0.195940    57A      0.204251  
      58A      0.225903    59A      0.230180    60A      0.240528  
      61A      0.248306    62A      0.250249    63A      0.253967  
      64A      0.259531    65A      0.276548    66A      0.295273  
      67A      0.298081    68A      0.330068    69A      0.337408  
      70A      0.347722    71A      0.364949    72A      0.383008  
      73A      0.402377    74A      0.409746    75A      0.435039  
      76A      0.448190    77A      0.473466    78A      0.489484  
      79A      0.498377    80A      0.513456    81A      0.564091  
      82A      0.598801    83A      0.617412    84A      0.624635  
      85A      0.633506    86A      0.644750    87A      0.653265  
      88A      0.660118    89A      0.674613    90A      0.687867  
      91A      0.699586    92A      0.709461    93A      0.712850  
      94A      0.715850    95A      0.721601    96A      0.731954  
      97A      0.734604    98A      0.737488    99A      0.751940  
     100A      0.776885   101A      0.777212   102A      0.784253  
     103A      0.799537   104A      0.819249   105A      0.825581  
     106A      0.843001   107A      0.853427   108A      0.860551  
     109A      0.865318   110A      0.871187   111A      0.877546  
     112A      0.879507   113A      0.885945   114A      0.889194  
     115A      0.896079   116A      0.902527   117A      0.903918  
     118A      0.908765   119A      0.917061   120A      0.918806  
     121A      0.934763   122A      0.938860   123A      0.945204  
     124A      0.964441   125A      0.968133   126A      0.982459  
     127A      0.988348   128A      0.995844   129A      1.020987  
     130A      1.043779   131A      1.074249   132A      1.122312  
     133A      1.130350   134A      1.136561   135A      1.148088  
     136A      1.151117   137A      1.189701   138A      1.207120  
     139A      1.217890   140A      1.231109   141A      1.257207  
     142A      1.268292   143A      1.289474   144A      1.293046  
     145A      1.311134   146A      1.334268   147A      1.358711  
     148A      1.376423   149A      1.383714   150A      1.411880  
     151A      1.441207   152A      1.454303   153A      1.468818  
     154A      1.478424   155A      1.482796   156A      1.485486  
     157A      1.518257   158A      1.559487   159A      1.597464  
     160A      1.605815   161A      1.639318   162A      1.650040  
     163A      1.691594   164A      1.701038   165A      1.718887  
     166A      1.734999   167A      1.747657   168A      1.772836  
     169A      1.782581   170A      1.799307   171A      1.802812  
     172A      1.814382   173A      1.824664   174A      1.843780  
     175A      1.861164   176A      1.870251   177A      1.877200  
     178A      1.895265   179A      1.899683   180A      1.904922  
     181A      1.916304   182A      1.923173   183A      1.927016  
     184A      1.940406   185A      1.947135   186A      1.953707  
     187A      1.969327   188A      1.972667   189A      1.989942  
     190A      2.001001   191A      2.013164   192A      2.026753  
     193A      2.032081   194A      2.036003   195A      2.046700  
     196A      2.050720   197A      2.069182   198A      2.076553  
     199A      2.094099   200A      2.108221   201A      2.116057  
     202A      2.130263   203A      2.146713   204A      2.183511  
     205A      2.192631   206A      2.203952   207A      2.225888  
     208A      2.239162   209A      2.243291   210A      2.255580  
     211A      2.260984   212A      2.284025   213A      2.289886  
     214A      2.319729   215A      2.350705   216A      2.368554  
     217A      2.380350   218A      2.405411   219A      2.412757  
     220A      2.436804   221A      2.444914   222A      2.451843  
     223A      2.466741   224A      2.477670   225A      2.531562  
     226A      2.556925   227A      2.590183   228A      2.604183  
     229A      2.628150   230A      2.649271   231A      2.678480  
     232A      2.716069   233A      2.744646   234A      2.765492  
     235A      2.772471   236A      2.780897   237A      2.795492  
     238A      2.836591   239A      2.856245   240A      2.909889  
     241A      2.912312   242A      2.932239   243A      2.983220  
     244A      2.996963   245A      3.004726   246A      3.038420  
     247A      3.076096   248A      3.139743   249A      3.222080  
     250A      3.257960   251A      3.755695  

    Final Occupation by Irrep:
              A 
    DOCC [    51 ]

  @DF-RHF Final Energy:  -921.49215927396529

   => Energetics <=

    Nuclear Repulsion Energy =            828.4977591942139270
    One-Electron Energy =               -2905.1406940037177264
    Two-Electron Energy =                1155.1507755355387417
    Total Energy =                       -921.4921592739651715

Computation Completed


Properties will be evaluated at   0.000000,   0.000000,   0.000000 [a0]

Properties computed using the SCF density matrix

  Nuclear Dipole Moment: [e a0]
     X:    25.4027      Y:     5.7647      Z:    -5.5123

  Electronic Dipole Moment: [e a0]
     X:   -24.5192      Y:    -5.5607      Z:     5.2824

  Dipole Moment: [e a0]
     X:     0.8834      Y:     0.2041      Z:    -0.2299     Total:     0.9354

  Dipole Moment: [D]
     X:     2.2455      Y:     0.5186      Z:    -0.5843     Total:     2.3775


*** tstop() called on skylm003.palmetto.clemson.edu at Wed Feb  9 03:54:20 2022
Module time:
	user time   =      18.75 seconds =       0.31 minutes
	system time =       0.80 seconds =       0.01 minutes
	total time  =         20 seconds =       0.33 minutes
Total time:
	user time   =      18.75 seconds =       0.31 minutes
	system time =       0.80 seconds =       0.01 minutes
	total time  =         20 seconds =       0.33 minutes
 MINTS: Wrapper to libmints.
   by Justin Turney

   Calculation information:
      Number of threads:                 1
      Number of atoms:                  26
      Number of AO shells:             119
      Number of SO shells:             119
      Number of primitives:            379
      Number of atomic orbitals:       264
      Number of basis functions:       251

      Number of irreps:                  1
      Integral cutoff                 1.00e-12
      Number of functions per irrep: [ 251 ]

 OEINTS: Overlap, kinetic, potential, dipole, and quadrupole integrals
         stored in file 35.

      Computing two-electron integrals...done
      Computed 315969364 non-zero two-electron integrals.
        Stored in file 33.


*** tstart() called on skylm003.palmetto.clemson.edu
*** at Wed Feb  9 03:59:55 2022


	Wfn Parameters:
	--------------------
	Wavefunction         = CCSD
	Number of irreps     = 1
	Number of MOs        = 251
	Number of active MOs = 251
	AO-Basis             = NONE
	Semicanonical        = false
	Reference            = RHF
	Print Level          = 1

	IRREP	# MOs	# FZDC	# DOCC	# SOCC	# VIRT	# FZVR
	-----	-----	------	------	------	------	------
	 A	   251	    0	    51	    0	    200	    0
	Transforming integrals...
	IWL integrals will be deleted.
	(OO|OO)...
	Presorting SO-basis two-electron integrals.
	Sorting File: SO Ints (nn|nn) nbuckets = 1
	Constructing frozen core operators
	Starting first half-transformation.
	Sorting half-transformed integrals.
	First half integral transformation complete.
	Starting second half-transformation.
	Two-electron integral transformation complete.
	(OO|OV)...
	Starting second half-transformation.
	Two-electron integral transformation complete.
	(OO|VV)...
	Starting second half-transformation.
	Two-electron integral transformation complete.
	(OV|OO)...
	Starting first half-transformation.
	Sorting half-transformed integrals.
	First half integral transformation complete.
	Starting second half-transformation.
	Two-electron integral transformation complete.
	(OV|OV)...
	Starting second half-transformation.
	Two-electron integral transformation complete.
	(OV|VV)...
	Starting second half-transformation.
	Two-electron integral transformation complete.
	(VV|OO)...
	Starting first half-transformation.
	Sorting half-transformed integrals.
	First half integral transformation complete.
	Starting second half-transformation.
	Two-electron integral transformation complete.
	(VV|OV)...
	Starting second half-transformation.
	Two-electron integral transformation complete.
	(VV|VV)...
	Starting second half-transformation.
	Two-electron integral transformation complete.
	Frozen core energy     =      0.00000000000000

	Size of irrep 0 of <ab|cd> integrals:   1600.000 (MW) /  12800.000 (MB)
	Total:                                  1600.000 (MW) /  12800.000 (MB)

	Size of irrep 0 of <ia|bc> integrals:    408.000 (MW) /   3264.000 (MB)
	Total:                                   408.000 (MW) /   3264.000 (MB)

	Size of irrep 0 of tijab amplitudes:     104.040 (MW) /    832.320 (MB)
	Total:                                   104.040 (MW) /    832.320 (MB)

	Nuclear Rep. energy          =    828.49775919421393
	SCF energy                   =   -921.49215927396529
	One-electron energy          =  -2905.14069390874192
	Two-electron energy          =   1155.15003603010427
	Reference energy             =   -921.49289868442372

*** tstop() called on skylm003.palmetto.clemson.edu at Wed Feb  9 04:09:21 2022
Module time:
	user time   =     243.80 seconds =       4.06 minutes
	system time =     108.20 seconds =       1.80 minutes
	total time  =        566 seconds =       9.43 minutes
Total time:
	user time   =     488.90 seconds =       8.15 minutes
	system time =     116.85 seconds =       1.95 minutes
	total time  =        921 seconds =      15.35 minutes
            **************************
            *                        *
            *        CCENERGY        *
            *                        *
            **************************

    Nuclear Rep. energy (wfn)     =  828.497759194213927
    SCF energy          (wfn)     = -921.492159273965285
    Reference energy    (file100) = -921.492898684423722

    Input parameters:
    -----------------
    Wave function   =     CCSD
    Reference wfn   =     RHF
    Brueckner       =     No
    Memory (Mbytes) =     62000.0
    Maxiter         =     50
    R_Convergence   =     1.0e-07
    E_Convergence   =     1.0e-08
    Restart         =     Yes
    DIIS            =     Yes
    AO Basis        =     NONE
    ABCD            =     NEW
    Cache Level     =     2
    Cache Type      =     LOW
    Print Level     =     1
    Num. of threads =     1
    # Amps to Print =     10
    Print MP2 Amps? =     No
    Analyze T2 Amps =     No
    Print Pair Ener =     No
    Local CC        =     No
    SCS-MP2         =     False
    SCSN-MP2        =     False
    SCS-CCSD        =     False

MP2 correlation energy -1.7909418748458961
                Solving CC Amplitude Equations
                ------------------------------
  Iter             Energy              RMS        T1Diag      D1Diag    New D1Diag    D2Diag
  ----     ---------------------    ---------   ----------  ----------  ----------   --------
     0        -1.790941874845896    0.000e+00    0.000000    0.000000    0.000000    0.178832
     1        -1.818813113201318    1.282e-01    0.006518    0.024026    0.024026    0.167514
     2        -1.867112151085028    4.426e-02    0.006636    0.023697    0.023697    0.181626
     3        -1.877576196991555    1.785e-02    0.007517    0.028114    0.028114    0.185554
     4        -1.877640784900420    5.381e-03    0.007594    0.028610    0.028610    0.187480
     5        -1.877829799714842    2.311e-03    0.007635    0.029203    0.029203    0.188465
     6        -1.877875815163594    6.803e-04    0.007637    0.029342    0.029342    0.188710
     7        -1.877851417098299    2.354e-04    0.007636    0.029403    0.029403    0.188772
     8        -1.877848211925386    7.341e-05    0.007637    0.029433    0.029433    0.188787
     9        -1.877851054286984    2.684e-05    0.007637    0.029444    0.029444    0.188789
    10        -1.877848867882463    1.465e-05    0.007638    0.029453    0.029453    0.188789
    11        -1.877848905137019    5.076e-06    0.007638    0.029456    0.029456    0.188788
    12        -1.877848661709139    2.405e-06    0.007638    0.029458    0.029458    0.188788
    13        -1.877848641825689    7.264e-07    0.007638    0.029458    0.029458    0.188788
    14        -1.877848640877385    3.007e-07    0.007638    0.029458    0.029458    0.188788
    15        -1.877848639211787    1.486e-07    0.007638    0.029458    0.029458    0.188788
    16        -1.877848636879724    7.076e-08    0.007638    0.029458    0.029458    0.188788

    Iterations converged.


    Largest TIA Amplitudes:
             49  44        -0.0124096056
             49  43        -0.0113412451
             49  88         0.0111671866
             45   1        -0.0103529317
             50   1         0.0098210013
             49  46         0.0097479857
             50  77         0.0094121151
             38  37        -0.0085728411
             48   1         0.0070660691
             45  37        -0.0070470098

    Largest TIjAb Amplitudes:
     49  49   0   0        -0.0691617505
     50  50   1   1        -0.0591498210
     49  49   1   1        -0.0491052830
     50  50   0   0        -0.0435023433
     49  50   1   0         0.0317930938
     50  49   0   1         0.0317930938
     49  49   0   1         0.0249254060
     49  49   1   0         0.0249254060
     49  50   0   0         0.0229162808
     50  49   0   0         0.0229162808

    SCF energy       (wfn)                    = -921.492159273965285
    Reference energy (file100)                = -921.492898684423722

    Opposite-spin MP2 correlation energy      =   -1.318913282354245
    Same-spin MP2 correlation energy          =   -0.472028592491651
    Singles MP2 correlation energy            =   -0.000000000000000
    MP2 correlation energy                    =   -1.790941874845896
      * MP2 total energy                      = -923.283840559269606

    Opposite-spin CCSD correlation energy     =   -1.452877702092009
    Same-spin CCSD correlation energy         =   -0.424970934787715
    Singles CCSD correlation energy           =    0.000000000000000
    CCSD correlation energy                   =   -1.877848636879724
      * CCSD total energy                     = -923.370747321303497


			**************************
			*                        *
			*         CCHBAR         *
			*                        *
			**************************


			**************************
			*        CCLAMBDA        *
			**************************


	Nuclear Rep. energy (wfn)     =  828.497759194213927
	Reference           (wfn)     =                    0
	SCF energy          (wfn)     = -921.492159273965285
	Reference energy    (CC_INFO) = -921.492898684423722
	CCSD energy         (CC_INFO) =   -1.877848636879724
	Total CCSD energy   (CC_INFO) = -923.370747321303497

	Input parameters:
	-----------------
	Maxiter           =     50
	Convergence       = 1.0e-07
	Restart           =     No
	Cache Level       =     2
	Model III         =     No
	DIIS              =     Yes
	AO Basis          =     No
	ABCD              =     NEW
	Local CC          =     No
	Parameters for left-handed eigenvectors:
	    Irr   Root  Ground-State?    EOM energy        R0
	  1   0     0        Yes       0.0000000000   1.0000000000
	Labels for eigenvector 1:
	LIA 0 -1, Lia 0 -1, LIJAB 0 -1, Lijab 0 -1, LIjAb 0 -1, 2LIjAb - LIjbA 0 -1
	Symmetry of left-hand state: A
	Symmetry of left-hand eigenvector: A

	          Solving Lambda Equations
	          ------------------------
	Iter     PseudoEnergy or Norm         RMS  
	----     ---------------------     --------
	   0        -1.877942839120794    0.000e+00
	   1        -1.822457740094661    3.222e-02
	   2        -1.817596879708015    6.798e-03
	   3        -1.816195677577318    2.350e-03
	   4        -1.816116945235590    7.533e-04
	   5        -1.816157986031832    3.391e-04
	   6        -1.816147693332783    1.139e-04
	   7        -1.816145825025092    4.627e-05
	   8        -1.816147235178593    1.552e-05
	   9        -1.816147148787063    6.237e-06
	  10        -1.816147264920481    2.507e-06
	  11        -1.816147217388399    9.967e-07
	  12        -1.816147176494390    3.839e-07
	  13        -1.816147174198769    1.537e-07
	  14        -1.816147171967023    7.416e-08

	Largest LIA Amplitudes:
	         49  44        -0.0097401928
	         49  43        -0.0089532858
	         49  88         0.0089365848
	         50   1         0.0088985940
	         49  46         0.0076637512
	         45   1        -0.0072434480
	         50  77         0.0072226498
	         38  37        -0.0068222991
	         45  37        -0.0053521258
	         50   0         0.0053016753

	Largest LIjAb Amplitudes:
	 49  49   0   0        -0.0647266285
	 50  50   1   1        -0.0550398928
	 49  49   1   1        -0.0451156787
	 50  50   0   0        -0.0398031767
	 49  50   1   0         0.0297460380
	 50  49   0   1         0.0297460380
	 49  49   0   1         0.0244217303
	 49  49   1   0         0.0244217303
	 49  50   0   0         0.0222942430
	 50  49   0   0         0.0222942430

	Iterations converged.

	Overlap <L|e^T> =        0.28370302841

			**************************
			*                        *
			*        CCDENSITY       *
			*                        *
			**************************


	Input parameters:
	-----------------
	Wave function    =   CCSD
	Reference wfn    =   RHF
	Dertype          = 1
	Tolerance        = 1.0e-14
	Cache Level      = 2
	AO Basis         = No
	OPDM Only        = No
	Relax OPDM       = Yes
	Compute Xi       = No
	Use Zeta         = No
	Xi connected     = Yes
	Compute NO       = No

	Nuclear Rep. energy (wfn)     =  828.497759194213927
	SCF energy          (wfn)     = -921.492159273965285
	Reference energy    (file100) = -921.492898684423722
	CCSD energy         (CC_INFO) =   -1.877848636879724
	Total CCSD energy   (CC_INFO) = -923.370747321303497
	Number of States = 1

	Ground?  State     EOM Energy       R0
	  Yes     0  A    0.0000000000   1.00000000

	Virial Theorem Data:
	--------------------
	Kinetic energy (ref)   =  920.778204588867197
	Kinetic energy (corr)  =    1.677627384287852
	Kinetic energy (total) =  922.455831973155000
	-V/T (ref)             =    2.000776184853198
	-V/T (corr)            =    2.119347868583384
	-V/T (total)           =    2.000991825642418
    Molecular point group: c1
    Full point group: C1

    Geometry (in Bohr), charge = 0, multiplicity = 1:

       Center              X                  Y                   Z       
    ------------   -----------------  -----------------  -----------------
         C            3.665514224785     1.436886876210    -4.042977927956
         C            2.994415785852     1.226709646811    -1.269971134745
         C            4.559297990343     2.893268565483     0.531948866293
         C            6.946881912184     1.324616357371     1.101491533519
         C            7.474867612184    -0.139549113812    -1.363253685476
         C            4.853067254902    -0.640993610381    -2.467131532484
         C            0.398733333350     0.445835127523    -0.486777921502
         C            0.078961437304    -1.270690039632     1.527853431671
         C           -2.344172012408    -1.971338125990     2.342939552734
         C           -4.492061182769    -0.964047960706     1.148713899668
         C           -4.197226112675     0.746840153417    -0.857596989374
         C           -1.767384135218     1.448548376131    -1.663047396923
         H           -1.537963824682     2.793855743201    -3.217921611855
         H           -5.861632633290     1.539880729500    -1.794674380466
         CL          -7.500280297089    -1.839745157517     2.146474176100
         H           -2.559831337298    -3.313347920971     3.901699044579
         H            1.753432639263    -2.074600320389     2.442339146933
         H            4.240571112845    -2.581203769280    -2.834656807720
         H            2.227678307708     0.871123661236    -5.415586168360
         H            4.877425824660     3.009242947528    -4.628433978884
         H            8.515796792227    -1.908693704931    -1.016560751048
         H            8.625200596534     1.008756194405    -2.673621906213
         H            6.502669661051    -0.044983439042     2.612709295500
         H            8.560687236337     2.476257032200     1.746245300538
         H            3.479378091154     3.347989583599     2.252228919259
         H            5.058652449817     4.699593518120    -0.389247266441

	Presorting MO-basis TPDM.
	Sorting File: MO TPDM (AA|AA) nbuckets = 1
	Starting first half-transformation.
	Sorting half-transformed TPDM.
	First half integral transformation complete.


  -Total gradient:
     Atom            X                  Y                   Z
    ------   -----------------  -----------------  -----------------
       1       -0.000162697006    -0.000006694299     0.000300198812
       2       -0.004115200975     0.000727405516     0.002847995936
       3        0.000839795090    -0.001565270529    -0.001283614723
       4       -0.001066077213    -0.000622539153    -0.000562727419
       5       -0.001954160123     0.001026046749    -0.000012128194
       6        0.003270008906    -0.000220224079     0.000467832037
       7        0.003927049743     0.000500167218    -0.000967679102
       8        0.003349370960    -0.002293068080     0.002988800912
       9       -0.000317866320     0.002521812435    -0.002773609665
      10       -0.010041024943    -0.003386578253     0.003901354628
      11        0.003203811496    -0.001164399673     0.001343111700
      12       -0.001830657031     0.003107576696    -0.003851642691
      13        0.001275150560     0.000087810379    -0.000037127785
      14        0.000369295377     0.000694307550    -0.000829484186
      15        0.003659450720     0.001098405319    -0.001278039125
      16        0.001064323864    -0.000302707671     0.000339268667
      17        0.000946163735     0.000463967558    -0.000724460750
      18       -0.000506650683     0.000727607836     0.000244281163
      19        0.000195636791    -0.000160783217     0.000998065503
      20        0.000096219495    -0.000626463552     0.000864787548
      21       -0.000757455744     0.000759874528    -0.000178456552
      22       -0.000744926205    -0.000290594164     0.000647136176
      23       -0.000058630866     0.000782960793    -0.001234984824
      24       -0.000579983614    -0.000386210458    -0.000339370862
      25       -0.000013012731    -0.000630517383    -0.000905348868
      26       -0.000047933228    -0.000841892061     0.000035841744


			-----------------------------------------
			 OPTKING 2.0: for geometry optimizations 
			  - R.A. King,  Bethel University        
			-----------------------------------------

	Internal coordinates to be generated automatically.
	Detected frag 1 with atoms:  1 2 3 4 5 6 7 8 9 10 11 12 13 14 15 16 17 18 19 20
	 21 22 23 24 25 26
	---Fragment 1 Bond Connectivity---
	 1 : 2 6 19 20
	 2 : 1 3 6 7
	 3 : 2 4 25 26
	 4 : 3 5 23 24
	 5 : 4 6 21 22
	 6 : 1 2 5 18
	 7 : 2 8 12
	 8 : 7 9 17
	 9 : 8 10 16
	 10 : 9 11 15
	 11 : 10 12 14
	 12 : 7 11 13
	 13 : 12
	 14 : 11
	 15 : 10
	 16 : 9
	 17 : 8
	 18 : 6
	 19 : 1
	 20 : 1
	 21 : 5
	 22 : 5
	 23 : 4
	 24 : 4
	 25 : 3
	 26 : 3

	---Fragment 1 Geometry and Gradient---
	 C           3.6655142248        1.4368868762       -4.0429779280
	 C           2.9944157859        1.2267096468       -1.2699711347
	 C           4.5592979903        2.8932685655        0.5319488663
	 C           6.9468819122        1.3246163574        1.1014915335
	 C           7.4748676122       -0.1395491138       -1.3632536855
	 C           4.8530672549       -0.6409936104       -2.4671315325
	 C           0.3987333333        0.4458351275       -0.4867779215
	 C           0.0789614373       -1.2706900396        1.5278534317
	 C          -2.3441720124       -1.9713381260        2.3429395527
	 C          -4.4920611828       -0.9640479607        1.1487138997
	 C          -4.1972261127        0.7468401534       -0.8575969894
	 C          -1.7673841352        1.4485483761       -1.6630473969
	 H          -1.5379638247        2.7938557432       -3.2179216119
	 H          -5.8616326333        1.5398807295       -1.7946743805
	 CL         -7.5002802971       -1.8397451575        2.1464741761
	 H          -2.5598313373       -3.3133479210        3.9016990446
	 H           1.7534326393       -2.0746003204        2.4423391469
	 H           4.2405711128       -2.5812037693       -2.8346568077
	 H           2.2276783077        0.8711236612       -5.4155861684
	 H           4.8774258247        3.0092429475       -4.6284339789
	 H           8.5157967922       -1.9086937049       -1.0165607510
	 H           8.6252005965        1.0087561944       -2.6736219062
	 H           6.5026696611       -0.0449834390        2.6127092955
	 H           8.5606872363        2.4762570322        1.7462453005
	 H           3.4793780912        3.3479895836        2.2522289193
	 H           5.0586524498        4.6995935181       -0.3892472664
	            -0.0001626970       -0.0000066943        0.0003001988
	            -0.0041152010        0.0007274055        0.0028479959
	             0.0008397951       -0.0015652705       -0.0012836147
	            -0.0010660772       -0.0006225392       -0.0005627274
	            -0.0019541601        0.0010260467       -0.0000121282
	             0.0032700089       -0.0002202241        0.0004678320
	             0.0039270497        0.0005001672       -0.0009676791
	             0.0033493710       -0.0022930681        0.0029888009
	            -0.0003178663        0.0025218124       -0.0027736097
	            -0.0100410249       -0.0033865783        0.0039013546
	             0.0032038115       -0.0011643997        0.0013431117
	            -0.0018306570        0.0031075767       -0.0038516427
	             0.0012751506        0.0000878104       -0.0000371278
	             0.0003692954        0.0006943075       -0.0008294842
	             0.0036594507        0.0010984053       -0.0012780391
	             0.0010643239       -0.0003027077        0.0003392687
	             0.0009461637        0.0004639676       -0.0007244607
	            -0.0005066507        0.0007276078        0.0002442812
	             0.0001956368       -0.0001607832        0.0009980655
	             0.0000962195       -0.0006264636        0.0008647875
	            -0.0007574557        0.0007598745       -0.0001784566
	            -0.0007449262       -0.0002905942        0.0006471362
	            -0.0000586309        0.0007829608       -0.0012349848
	            -0.0005799836       -0.0003862105       -0.0003393709
	            -0.0000130127       -0.0006305174       -0.0009053489
	            -0.0000479332       -0.0008418921        0.0000358417

	Previous optimization step data not found.  Starting new optimization.

	---Fragment 1 Intrafragment Coordinates---
	 - Coordinate -           - BOHR/RAD -       - ANG/DEG -
	 R(1,2)           =         2.860789	       1.513864
	 R(1,6)           =         2.865512	       1.516364
	 R(1,19)          =         2.066764	       1.093684
	 R(1,20)          =         2.069732	       1.095255
	 R(2,3)           =         2.910875	       1.540368
	 R(2,6)           =         2.894148	       1.531517
	 R(2,7)           =         2.821476	       1.493061
	 R(3,4)           =         2.913006	       1.541497
	 R(3,25)          =         2.081433	       1.101447
	 R(3,26)          =         2.088245	       1.105052
	 R(4,5)           =         2.915050	       1.542578
	 R(4,23)          =         2.087321	       1.104562
	 R(4,24)          =         2.084790	       1.103224
	 R(5,6)           =         2.888569	       1.528565
	 R(5,21)          =         2.081731	       1.101604
	 R(5,22)          =         2.087806	       1.104820
	 R(6,18)          =         2.067521	       1.094085
	 R(7,8)           =         2.665981	       1.410776
	 R(7,12)          =         2.661035	       1.408159
	 R(8,9)           =         2.650820	       1.402754
	 R(8,17)          =         2.070365	       1.095590
	 R(9,10)          =         2.655981	       1.405485
	 R(9,16)          =         2.068147	       1.094416
	 R(10,11)         =         2.653177	       1.404001
	 R(10,15)         =         3.288123	       1.740000
	 R(11,12)         =         2.654294	       1.404592
	 R(11,14)         =         2.068158	       1.094422
	 R(12,13)         =         2.068845	       1.094786
	 B(1,2,3)         =         2.017351	     115.585685
	 B(1,2,6)         =         1.042344	      59.721936
	 B(1,2,7)         =         2.100422	     120.345328
	 B(1,6,2)         =         1.039528	      59.560564
	 B(1,6,5)         =         2.049282	     117.415187
	 B(1,6,18)        =         2.048738	     117.384025
	 B(2,1,6)         =         1.059720	      60.717500
	 B(2,1,19)        =         2.049292	     117.415782
	 B(2,1,20)        =         2.057096	     117.862942
	 B(2,3,4)         =         1.826944	     104.676198
	 B(2,3,25)        =         1.936680	     110.963570
	 B(2,3,26)        =         1.929130	     110.530986
	 B(2,6,5)         =         1.888930	     108.227717
	 B(2,6,18)        =         2.081600	     119.266883
	 B(2,7,8)         =         2.092441	     119.888038
	 B(2,7,12)        =         2.119852	     121.458574
	 B(3,2,6)         =         1.854886	     106.277162
	 B(3,2,7)         =         2.072817	     118.763664
	 B(3,4,5)         =         1.827213	     104.691617
	 B(3,4,23)        =         1.897014	     108.690913
	 B(3,4,24)        =         1.979545	     113.419580
	 B(4,3,25)        =         1.962002	     112.414409
	 B(4,3,26)        =         1.934839	     110.858094
	 B(4,5,6)         =         1.819262	     104.236043
	 B(4,5,21)        =         1.956931	     112.123910
	 B(4,5,22)        =         1.932871	     110.745342
	 B(5,4,23)        =         1.897723	     108.731493
	 B(5,4,24)        =         1.980944	     113.499740
	 B(5,6,18)        =         2.094079	     119.981893
	 B(6,1,19)        =         2.043221	     117.067911
	 B(6,1,20)        =         2.053042	     117.630648
	 B(6,2,7)         =         2.125903	     121.805252
	 B(6,5,21)        =         1.949769	     111.713517
	 B(6,5,22)        =         1.934481	     110.837597
	 B(7,8,9)         =         2.108523	     120.809467
	 B(7,8,17)        =         2.079202	     119.129487
	 B(7,12,11)       =         2.107639	     120.758819
	 B(7,12,13)       =         2.079425	     119.142292
	 B(8,7,12)        =         2.070330	     118.621159
	 B(8,9,10)        =         2.095249	     120.048921
	 B(8,9,16)        =         2.092759	     119.906259
	 B(9,8,17)        =         2.095393	     120.057181
	 B(9,10,11)       =         2.088291	     119.650243
	 B(9,10,15)       =         2.097186	     120.159919
	 B(10,9,16)       =         2.095155	     120.043517
	 B(10,11,12)      =         2.096327	     120.110679
	 B(10,11,14)      =         2.094932	     120.030779
	 B(11,10,15)      =         2.097704	     120.189614
	 B(11,12,13)      =         2.096116	     120.098614
	 B(12,11,14)      =         2.091924	     119.858405
	 B(19,1,20)       =         2.012474	     115.306264
	 B(21,5,22)       =         1.871758	     107.243849
	 B(23,4,24)       =         1.878938	     107.655190
	 B(25,3,26)       =         1.875161	     107.438837
	 D(1,2,3,4)       =        -1.487484	     -85.226572
	 D(1,2,3,25)      =         2.675187	     153.276932
	 D(1,2,3,26)      =         0.596675	      34.186976
	 D(1,2,6,5)       =         1.948453	     111.638142
	 D(1,2,6,18)      =        -1.856921	    -106.393716
	 D(1,2,7,8)       =         2.408854	     138.017151
	 D(1,2,7,12)      =        -0.769280	     -44.076485
	 D(1,6,2,3)       =        -1.928884	    -110.516925
	 D(1,6,2,7)       =         1.903190	     109.044759
	 D(1,6,5,4)       =         1.468895	      84.161501
	 D(1,6,5,21)      =        -2.697521	    -154.556588
	 D(1,6,5,22)      =        -0.611214	     -35.019998
	 D(2,1,6,5)       =        -1.674893	     -95.964306
	 D(2,1,6,18)      =         1.911561	     109.524357
	 D(2,3,4,5)       =         0.589407	      33.770540
	 D(2,3,4,23)      =        -1.436065	     -82.280465
	 D(2,3,4,24)      =         2.757968	     158.019943
	 D(2,6,1,19)      =        -1.882068	    -107.834530
	 D(2,6,1,20)      =         1.887309	     108.134828
	 D(2,6,5,4)       =         0.342659	      19.632931
	 D(2,6,5,21)      =         2.459428	     140.914841
	 D(2,6,5,22)      =        -1.737450	     -99.548568
	 D(2,7,8,9)       =         3.108309	     178.092997
	 D(2,7,8,17)      =        -0.045760	      -2.621861
	 D(2,7,12,11)     =        -3.110817	    -178.236678
	 D(2,7,12,13)     =         0.027453	       1.572949
	 D(3,2,1,6)       =         1.651177	      94.605460
	 D(3,2,1,19)      =        -2.759824	    -158.126276
	 D(3,2,1,20)      =        -0.229547	     -13.152074
	 D(3,2,6,5)       =         0.019569	       1.121217
	 D(3,2,6,18)      =         2.497380	     143.089359
	 D(3,2,7,8)       =        -1.201325	     -68.830845
	 D(3,2,7,12)      =         1.903727	     109.075519
	 D(3,4,5,6)       =        -0.573602	     -32.864999
	 D(3,4,5,21)      =        -2.685602	    -153.873654
	 D(3,4,5,22)      =         1.507600	      86.379143
	 D(4,3,2,6)       =        -0.375127	     -21.493186
	 D(4,3,2,7)       =         2.100956	     120.375901
	 D(4,5,6,18)      =        -2.129570	    -122.015351
	 D(5,4,3,25)      =         2.693170	     154.307289
	 D(5,4,3,26)      =        -1.490910	     -85.422842
	 D(5,6,1,19)      =         2.726225	     156.201164
	 D(5,6,1,20)      =         0.212416	      12.170522
	 D(5,6,2,7)       =        -2.431542	    -139.317099
	 D(6,1,2,7)       =        -1.944837	    -111.430967
	 D(6,2,1,19)      =         1.872184	     107.268264
	 D(6,2,1,20)      =        -1.880724	    -107.757534
	 D(6,2,3,25)      =        -2.495641	    -142.989682
	 D(6,2,3,26)      =         1.709033	      97.920361
	 D(6,2,7,8)       =         1.168456	      66.947624
	 D(6,2,7,12)      =        -2.009677	    -115.146011
	 D(6,5,4,23)      =         1.451379	      83.157872
	 D(6,5,4,24)      =        -2.741271	    -157.063259
	 D(7,2,1,19)      =        -0.072653	      -4.162703
	 D(7,2,1,20)      =         2.457624	     140.811498
	 D(7,2,3,25)      =        -0.019558	      -1.120595
	 D(7,2,3,26)      =        -2.098070	    -120.210552
	 D(7,2,6,18)      =         0.046269	       2.651043
	 D(7,8,9,10)      =         0.001304	       0.074700
	 D(7,8,9,16)      =         3.135653	     179.659684
	 D(7,12,11,10)    =         0.004887	       0.280010
	 D(7,12,11,14)    =        -3.139052	    -179.854428
	 D(8,7,12,11)     =        -0.005315	      -0.304531
	 D(8,7,12,13)     =         3.132955	     179.505096
	 D(8,9,10,11)     =        -0.001796	      -0.102888
	 D(8,9,10,15)     =         3.136800	     179.725376
	 D(9,8,7,12)      =         0.002225	       0.127485
	 D(9,10,11,12)    =        -0.001268	      -0.072650
	 D(9,10,11,14)    =        -3.140510	    -179.937978
	 D(10,9,8,17)     =        -3.127697	    -179.203838
	 D(10,11,12,13)   =        -3.133351	    -179.527802
	 D(11,10,9,16)    =        -3.136135	    -179.687298
	 D(12,7,8,17)     =         3.131341	     179.412627
	 D(12,11,10,15)   =        -3.139862	    -179.900862
	 D(13,12,11,14)   =         0.005895	       0.337760
	 D(14,11,10,15)   =         0.004081	       0.233810
	 D(15,10,9,16)    =         0.002460	       0.140965
	 D(16,9,8,17)     =         0.006652	       0.381147
	 D(18,6,1,19)     =         0.029493	       1.689827
	 D(18,6,1,20)     =        -2.484316	    -142.340815
	 D(18,6,5,21)     =        -0.012801	      -0.733441
	 D(18,6,5,22)     =         2.073506	     118.803150
	 D(21,5,4,23)     =        -0.660621	     -37.850783
	 D(21,5,4,24)     =         1.429915	      81.928087
	 D(22,5,4,23)     =        -2.750604	    -157.597986
	 D(22,5,4,24)     =        -0.660068	     -37.819116
	 D(23,4,3,25)     =         0.667698	      38.256283
	 D(23,4,3,26)     =         2.766803	     158.526152
	 D(24,4,3,25)     =        -1.421454	     -81.443309
	 D(24,4,3,26)     =         0.677651	      38.826560

	Current energy   :      -923.3707473213

	Generating empirical Hessian (Schlegel '84) for each fragment.
	Taking RFO optimization step.
	Going to follow RFO solution 1.
	Using RFO vector 1.
	Norm of target step-size    0.12119
	Projected energy change by RFO approximation:        -0.0008420340

	Back-transformation to cartesian coordinates...
	Could not converge backtransformation.
	Using first guess instead.

	--- Internal Coordinate Step in ANG or DEG, aJ/ANG or AJ/DEG ---
	 ---------------------------------------------------------------------------
	   Coordinate                Previous        Force       Change         New 
	   ----------                --------       ------       ------       ------
	    1 R(1,2)          =      1.513864     0.010127     0.002417     1.516282
	    2 R(1,6)          =      1.516364     0.007977     0.001568     1.517932
	    3 R(1,19)         =      1.093684     0.006220     0.001171     1.094855
	    4 R(1,20)         =      1.095255     0.005472     0.001043     1.096299
	    5 R(2,3)          =      1.540368     0.028094     0.006124     1.546493
	    6 R(2,6)          =      1.531517     0.003783     0.000068     1.531585
	    7 R(2,7)          =      1.493061     0.049831     0.009649     1.502710
	    8 R(3,4)          =      1.541497     0.018511     0.004768     1.546265
	    9 R(3,25)         =      1.101447     0.007244     0.001432     1.102879
	   10 R(3,26)         =      1.105052     0.006224     0.001309     1.106360
	   11 R(4,5)          =      1.542578     0.017547     0.004602     1.547180
	   12 R(4,23)         =      1.104562     0.011496     0.002595     1.107157
	   13 R(4,24)         =      1.103224     0.006321     0.001495     1.104719
	   14 R(5,6)          =      1.528565     0.027286     0.005810     1.534375
	   15 R(5,21)         =      1.101604     0.008686     0.001722     1.103326
	   16 R(5,22)         =      1.104820     0.008045     0.001679     1.106499
	   17 R(6,18)         =      1.094085     0.004747     0.000909     1.094994
	   18 R(7,8)          =      1.410776    -0.002965    -0.000364     1.410412
	   19 R(7,12)         =      1.408159    -0.008398    -0.001176     1.406983
	   20 R(8,9)          =      1.402754    -0.012106    -0.001720     1.401034
	   21 R(8,17)         =      1.095590    -0.002184    -0.000328     1.095262
	   22 R(9,10)         =      1.405485    -0.018053    -0.002472     1.403012
	   23 R(9,16)         =      1.094416    -0.002811    -0.000426     1.093990
	   24 R(10,11)        =      1.404001    -0.023507    -0.003296     1.400705
	   25 R(10,15)        =      1.740000     0.033188     0.006765     1.746765
	   26 R(11,12)        =      1.404592    -0.006290    -0.000861     1.403731
	   27 R(11,14)        =      1.094422    -0.002841    -0.000478     1.093944
	   28 R(12,13)        =      1.094786    -0.001865    -0.000312     1.094474
	   29 B(1,2,3)        =    115.585685     0.000014    -0.021741   115.563944
	   30 B(1,2,6)        =     59.721936     0.000004     0.015155    59.737091
	   31 B(1,2,7)        =    120.345328    -0.000001    -0.090626   120.254701
	   32 B(1,6,2)        =     59.560564     0.000016     0.069973    59.630537
	   33 B(1,6,5)        =    117.415187     0.000017     0.066279   117.481466
	   34 B(1,6,18)       =    117.384025     0.000005    -0.034244   117.349780
	   35 B(2,1,6)        =     60.717500    -0.000020    -0.085129    60.632371
	   36 B(2,1,19)       =    117.415782     0.000023     0.209308   117.625090
	   37 B(2,1,20)       =    117.862942     0.000022     0.112364   117.975305
	   38 B(2,3,4)        =    104.676198    -0.000009     0.165263   104.841460
	   39 B(2,3,25)       =    110.963570     0.000040     0.347212   111.310782
	   40 B(2,3,26)       =    110.530986    -0.000003    -0.060897   110.470089
	   41 B(2,6,5)        =    108.227717     0.000012     0.172154   108.399871
	   42 B(2,6,18)       =    119.266883     0.000012     0.283875   119.550758
	   43 B(2,7,8)        =    119.888038     0.000097     0.287705   120.175742
	   44 B(2,7,12)       =    121.458574     0.000054     0.158868   121.617442
	   45 B(3,2,6)        =    106.277162     0.000014     0.133446   106.410609
	   46 B(3,2,7)        =    118.763664    -0.000020    -0.082275   118.681389
	   47 B(3,4,5)        =    104.691617    -0.000002     0.246163   104.937780
	   48 B(3,4,23)       =    108.690913     0.000002     0.018894   108.709807
	   49 B(3,4,24)       =    113.419580     0.000006    -0.026514   113.393066
	   50 B(4,3,25)       =    112.414409    -0.000014    -0.097571   112.316839
	   51 B(4,3,26)       =    110.858094     0.000006    -0.086270   110.771824
	   52 B(4,5,6)        =    104.236043    -0.000002     0.168108   104.404151
	   53 B(4,5,21)       =    112.123910    -0.000004    -0.035809   112.088101
	   54 B(4,5,22)       =    110.745342     0.000006    -0.005685   110.739657
	   55 B(5,4,23)       =    108.731493     0.000002    -0.018311   108.713182
	   56 B(5,4,24)       =    113.499740     0.000005    -0.007795   113.491945
	   57 B(5,6,18)       =    119.981893    -0.000032    -0.263143   119.718751
	   58 B(6,1,19)       =    117.067911     0.000016     0.011335   117.079247
	   59 B(6,1,20)       =    117.630648     0.000027     0.235995   117.866643
	   60 B(6,2,7)        =    121.805252     0.000005     0.195296   122.000548
	   61 B(6,5,21)       =    111.713517     0.000021     0.127167   111.840684
	   62 B(6,5,22)       =    110.837597    -0.000009    -0.066313   110.771284
	   63 B(7,8,9)        =    120.809467     0.000131     0.452916   121.262383
	   64 B(7,8,17)       =    119.129487     0.000033     0.234968   119.364455
	   65 B(7,12,11)      =    120.758819     0.000129     0.447552   121.206371
	   66 B(7,12,13)      =    119.142292     0.000034     0.241713   119.384005
	   67 B(8,7,12)       =    118.621159    -0.000151    -0.445784   118.175375
	   68 B(8,9,10)       =    120.048921    -0.000178    -0.604167   119.444755
	   69 B(8,9,16)       =    119.906259     0.000176     0.708715   120.614974
	   70 B(9,8,17)       =    120.057181    -0.000164    -0.686654   119.370527
	   71 B(9,10,11)      =    119.650243     0.000246     0.750163   120.400406
	   72 B(9,10,15)      =    120.159919    -0.000131    -0.399586   119.760333
	   73 B(10,9,16)      =    120.043517     0.000002    -0.103893   119.939624
	   74 B(10,11,12)     =    120.110679    -0.000178    -0.600546   119.510134
	   75 B(10,11,14)     =    120.030779     0.000003    -0.099937   119.930842
	   76 B(11,10,15)     =    120.189614    -0.000115    -0.350453   119.839161
	   77 B(11,12,13)     =    120.098614    -0.000164    -0.689162   119.409452
	   78 B(12,11,14)     =    119.858405     0.000175     0.700503   120.558908
	   79 B(19,1,20)      =    115.306264    -0.000046    -0.315124   114.991140
	   80 B(21,5,22)      =    107.243849    -0.000012    -0.179630   107.064218
	   81 B(23,4,24)      =    107.655190    -0.000012    -0.202920   107.452270
	   82 B(25,3,26)      =    107.438837    -0.000018    -0.255778   107.183059
	   83 D(1,2,3,4)      =    -85.226572    -0.000001     0.611827   -84.614745
	   84 D(1,2,3,25)     =    153.276932    -0.000001     0.437587   153.714519
	   85 D(1,2,3,26)     =     34.186976    -0.000001     0.573850    34.760826
	   86 D(1,2,6,5)      =    111.638142     0.000004    -0.000166   111.637976
	   87 D(1,2,6,18)     =   -106.393716    -0.000002     0.139816  -106.253900
	   88 D(1,2,7,8)      =    138.017151     0.000000    -0.416795   137.600357
	   89 D(1,2,7,12)     =    -44.076485     0.000000    -0.400156   -44.476641
	   90 D(1,6,2,3)      =   -110.516925    -0.000002     0.092346  -110.424580
	   91 D(1,6,2,7)      =    109.044759    -0.000000    -0.184671   108.860088
	   92 D(1,6,5,4)      =     84.161501     0.000003    -0.663314    83.498188
	   93 D(1,6,5,21)     =   -154.556588     0.000004    -0.532751  -155.089339
	   94 D(1,6,5,22)     =    -35.019998     0.000002    -0.720280   -35.740277
	   95 D(2,1,6,5)      =    -95.964306    -0.000003    -0.211470   -96.175776
	   96 D(2,1,6,18)     =    109.524357     0.000004     0.381721   109.906077
	   97 D(2,3,4,5)      =     33.770540    -0.000005    -1.213080    32.557461
	   98 D(2,3,4,23)     =    -82.280465    -0.000005    -1.325385   -83.605850
	   99 D(2,3,4,24)     =    158.019943    -0.000003    -1.065689   156.954254
	  100 D(2,6,1,19)     =   -107.834530    -0.000003    -0.216262  -108.050792
	  101 D(2,6,1,20)     =    108.134828     0.000002     0.005110   108.139938
	  102 D(2,6,5,4)      =     19.632931    -0.000003    -0.822486    18.810444
	  103 D(2,6,5,21)     =    140.914841    -0.000002    -0.691923   140.222918
	  104 D(2,6,5,22)     =    -99.548568    -0.000003    -0.879452  -100.428020
	  105 D(2,7,8,9)      =    178.092997     0.000001     0.088083   178.181080
	  106 D(2,7,8,17)     =     -2.621861     0.000001     0.208538    -2.413323
	  107 D(2,7,12,11)    =   -178.236678    -0.000000    -0.021861  -178.258539
	  108 D(2,7,12,13)    =      1.572949    -0.000000     0.016993     1.589941
	  109 D(3,2,1,6)      =     94.605460     0.000003     0.183357    94.788817
	  110 D(3,2,1,19)     =   -158.126276     0.000003     0.076101  -158.050175
	  111 D(3,2,1,20)     =    -13.152074    -0.000001    -0.022363   -13.174437
	  112 D(3,2,6,5)      =      1.121217     0.000001     0.092179     1.213396
	  113 D(3,2,6,18)     =    143.089359    -0.000004     0.232162   143.321521
	  114 D(3,2,7,8)      =    -68.830845    -0.000002    -0.880160   -69.711005
	  115 D(3,2,7,12)     =    109.075519    -0.000003    -0.863522   108.211997
	  116 D(3,4,5,6)      =    -32.864999     0.000005     1.259702   -31.605297
	  117 D(3,4,5,21)     =   -153.873654    -0.000000     1.019803  -152.853851
	  118 D(3,4,5,22)     =     86.379143     0.000003     1.275428    87.654571
	  119 D(4,3,2,6)      =    -21.493186     0.000001     0.678618   -20.814568
	  120 D(4,3,2,7)      =    120.375901     0.000002     1.071169   121.447070
	  121 D(4,5,6,18)     =   -122.015351    -0.000002    -1.207853  -123.223205
	  122 D(5,4,3,25)     =    154.307289     0.000003    -0.740343   153.566946
	  123 D(5,4,3,26)     =    -85.422842    -0.000003    -1.192728   -86.615571
	  124 D(5,6,1,19)     =    156.201164    -0.000006    -0.427732   155.773432
	  125 D(5,6,1,20)     =     12.170522    -0.000001    -0.206359    11.964162
	  126 D(5,6,2,7)      =   -139.317099     0.000003    -0.184838  -139.501937
	  127 D(6,1,2,7)      =   -111.430967    -0.000002    -0.281057  -111.712025
	  128 D(6,2,1,19)     =    107.268264     0.000001    -0.107256   107.161008
	  129 D(6,2,1,20)     =   -107.757534    -0.000004    -0.205719  -107.963254
	  130 D(6,2,3,25)     =   -142.989682     0.000001     0.504378  -142.485304
	  131 D(6,2,3,26)     =     97.920361     0.000001     0.640642    98.561003
	  132 D(6,2,7,8)      =     66.947624    -0.000001    -0.473169    66.474455
	  133 D(6,2,7,12)     =   -115.146011    -0.000002    -0.456531  -115.602542
	  134 D(6,5,4,23)     =     83.157872     0.000005     1.397815    84.555687
	  135 D(6,5,4,24)     =   -157.063259     0.000003     1.123868  -155.939391
	  136 D(7,2,1,19)     =     -4.162703    -0.000001    -0.388313    -4.551017
	  137 D(7,2,1,20)     =    140.811498    -0.000006    -0.486777   140.324722
	  138 D(7,2,3,25)     =     -1.120595     0.000002     0.896930    -0.223665
	  139 D(7,2,3,26)     =   -120.210552     0.000002     1.033193  -119.177358
	  140 D(7,2,6,18)     =      2.651043    -0.000002    -0.044855     2.606188
	  141 D(7,8,9,10)     =      0.074700    -0.000000    -0.089787    -0.015088
	  142 D(7,8,9,16)     =    179.659684     0.000000     0.032204   179.691888
	  143 D(7,12,11,10)   =      0.280010    -0.000000    -0.050272     0.229738
	  144 D(7,12,11,14)   =   -179.854428    -0.000000    -0.040032  -179.894461
	  145 D(8,7,12,11)    =     -0.304531     0.000000     0.009111    -0.295420
	  146 D(8,7,12,13)    =    179.505096     0.000000     0.047965   179.553060
	  147 D(8,9,10,11)    =     -0.102888     0.000000     0.046871    -0.056017
	  148 D(8,9,10,15)    =    179.725376     0.000001     0.103499   179.828874
	  149 D(9,8,7,12)     =      0.127485     0.000000     0.060021     0.187506
	  150 D(9,10,11,12)   =     -0.072650     0.000000     0.023226    -0.049424
	  151 D(9,10,11,14)   =   -179.937978     0.000000     0.011962  -179.926016
	  152 D(10,9,8,17)    =   -179.203838    -0.000001    -0.216811  -179.420649
	  153 D(10,11,12,13)  =   -179.527802    -0.000001    -0.090903  -179.618705
	  154 D(11,10,9,16)   =   -179.687298    -0.000001    -0.077704  -179.765002
	  155 D(12,7,8,17)    =    179.412627     0.000001     0.180476   179.593103
	  156 D(12,11,10,15)  =   -179.900862    -0.000000    -0.033362  -179.934224
	  157 D(13,12,11,14)  =      0.337760    -0.000000    -0.080663     0.257097
	  158 D(14,11,10,15)  =      0.233810    -0.000000    -0.044626     0.189183
	  159 D(15,10,9,16)   =      0.140965    -0.000000    -0.021076     0.119889
	  160 D(16,9,8,17)    =      0.381147    -0.000001    -0.094820     0.286327
	  161 D(18,6,1,19)    =      1.689827     0.000001     0.165459     1.855286
	  162 D(18,6,1,20)    =   -142.340815     0.000006     0.386831  -141.953984
	  163 D(18,6,5,21)    =     -0.733441    -0.000001    -1.077290    -1.810731
	  164 D(18,6,5,22)    =    118.803150    -0.000003    -1.264819   117.538330
	  165 D(21,5,4,23)    =    -37.850783     0.000000     1.157916   -36.692867
	  166 D(21,5,4,24)    =     81.928087    -0.000002     0.883969    82.812055
	  167 D(22,5,4,23)    =   -157.597986     0.000003     1.413541  -156.184445
	  168 D(22,5,4,24)    =    -37.819116     0.000001     1.139594   -36.679523
	  169 D(23,4,3,25)    =     38.256283     0.000003    -0.852649    37.403635
	  170 D(23,4,3,26)    =    158.526152    -0.000004    -1.305034   157.221119
	  171 D(24,4,3,25)    =    -81.443309     0.000005    -0.592952   -82.036261
	  172 D(24,4,3,26)    =     38.826560    -0.000001    -1.045337    37.781223
	 ---------------------------------------------------------------------------
	Successfully symmetrized geometry.

  ==> Convergence Check <==

  Measures of convergence in internal coordinates in au.
  Criteria marked as inactive (o), active & met (*), and active & unmet ( ).
  --------------------------------------------------------------------------------------------- ~
   Step     Total Energy     Delta E     MAX Force     RMS Force      MAX Disp      RMS Disp    ~
  --------------------------------------------------------------------------------------------- ~
    Convergence Criteria    1.00e-06 *    3.00e-04 *             o    1.20e-03 *             o  ~
  --------------------------------------------------------------------------------------------- ~
      1    -923.37074732   -9.23e+02      6.05e-03      1.01e-03 o    2.47e-02      9.24e-03 o  ~
  ---------------------------------------------------------------------------------------------

	Writing optimization data to binary file.
	Structure for next step:
	Cartesian Geometry (in Angstrom)
	    C     1.9429207320   0.7546490741  -2.1409001837
	    C     1.5880908005   0.6433221377  -0.6709299889
	    C     2.4153575083   1.5345007644   0.2846174673
	    C     3.6958866431   0.7188559639   0.5777092380
	    C     3.9675519890  -0.0772993995  -0.7207902156
	    C     2.5735282255  -0.3435436744  -1.3039874409
	    C     0.2042320176   0.2306822292  -0.2552387654
	    C     0.0251282766  -0.6844451034   0.8029320039
	    C    -1.2551085400  -1.0559952639   1.2340231186
	    C    -2.3816404514  -0.5079725061   0.6023266225
	    C    -2.2306567459   0.4040862166  -0.4499695547
	    C    -0.9416199168   0.7685728371  -0.8694858717
	    H    -0.8255525092   1.4861475006  -1.6877083705
	    H    -3.1143388902   0.8275823794  -0.9362510041
	   CL    -3.9816832828  -0.9688678915   1.1301760797
	    H    -1.3817704166  -1.7706262833   2.0526029971
	    H     0.9036806414  -1.1202724188   1.2905782549
	    H     2.2553502552  -1.3724259560  -1.5019165208
	    H     1.1847023730   0.4521490796  -2.8704940507
	    H     2.5800506970   1.5899390041  -2.4543118014
	    H     4.5167077888  -1.0141766780  -0.5258087018
	    H     4.5801549179   0.5177402204  -1.4243419631
	    H     3.4818608839   0.0032319200   1.3949439690
	    H     4.5493732938   1.3425776808   0.8985445281
	    H     1.8504076031   1.7710602277   1.2017941115
	    H     2.6654214144   2.4959384325  -0.2023512821
			--------------------------
			 OPTKING Finished Execution 
			--------------------------

    Structure for next step:
    Molecular point group: c1
    Full point group: C1

    Geometry (in Angstrom), charge = 0, multiplicity = 1:

    C            1.945851436035     0.754678309132    -2.139872622284
    C            1.591021503177     0.643351372217    -0.669902421678
    C            2.418288214165     1.534530002451     0.285645038263
    C            3.698817354084     0.718885198779     0.578736810113
    C            3.970482701036    -0.077270167738    -0.719762648545
    C            2.576458932048    -0.343514443729    -1.302959876232
    C            0.207162714832     0.230711462119    -0.254211196569
    C            0.028058973102    -0.684415874058     0.803959576863
    C           -1.252177848557    -1.055966036054     1.235050693302
    C           -2.378709764376    -0.507943276073     0.603354194688
    C           -2.227726058207     0.404115450202    -0.448941986631
    C           -0.938689224089     0.768602072143    -0.868458305313
    H           -0.822621816029     1.486176738507    -1.686680807343
    H           -3.111408206060     0.827611614716    -0.935223437988
    CL          -3.978752602034    -0.968838663311     1.131203653982
    H           -1.378839725569    -1.770597058241     2.053630575031
    H            0.906611341377    -1.120243191152     1.291605829847
    H            2.258280960499    -1.372396729376    -1.500888956843
    H            1.187633074089     0.452178313459    -2.869466492133
    H            2.582981403603     1.589968242405    -2.453284241166
    H            4.519638502972    -1.014147449967    -0.524781133983
    H            4.583085632325     0.517769454479    -1.423314398894
    H            3.484791594027     0.003261152082     1.395971544288
    H            4.552304008109     1.342606918133     0.899572101443
    H            1.853338306750     1.771089466686     1.202821686053
    H            2.668352121303     2.495967674373    -0.201323713059


Scratch directory: /scratch1/maxbuskirk/
gradient() will perform analytic gradient computation.

*** tstart() called on skylm003.palmetto.clemson.edu
*** at Wed Feb  9 10:28:54 2022

   => Loading Basis Set <=

    Name: CC-PVDZ
    Role: ORBITAL
    Keyword: BASIS
    atoms 1-12         entry C          line   138 file /home/maxbuskirk/.conda/envs/psifour/share/psi4/basis/cc-pvdz.gbs 
    atoms 13-14, 16-26 entry H          line    22 file /home/maxbuskirk/.conda/envs/psifour/share/psi4/basis/cc-pvdz.gbs 
    atoms 15           entry CL         line   658 file /home/maxbuskirk/.conda/envs/psifour/share/psi4/basis/cc-pvdz.gbs 


         ---------------------------------------------------------
                                   SCF
               by Justin Turney, Rob Parrish, Andy Simmonett
                          and Daniel G. A. Smith
                              RHF Reference
                        1 Threads,  59127 MiB Core
         ---------------------------------------------------------

  ==> Geometry <==

    Molecular point group: c1
    Full point group: C1

    Geometry (in Angstrom), charge = 0, multiplicity = 1:

       Center              X                  Y                   Z               Mass       
    ------------   -----------------  -----------------  -----------------  -----------------
         C            1.945851436035     0.754678309132    -2.139872622284    12.000000000000
         C            1.591021503177     0.643351372217    -0.669902421678    12.000000000000
         C            2.418288214165     1.534530002451     0.285645038263    12.000000000000
         C            3.698817354084     0.718885198779     0.578736810113    12.000000000000
         C            3.970482701036    -0.077270167738    -0.719762648545    12.000000000000
         C            2.576458932048    -0.343514443729    -1.302959876232    12.000000000000
         C            0.207162714832     0.230711462119    -0.254211196569    12.000000000000
         C            0.028058973102    -0.684415874058     0.803959576863    12.000000000000
         C           -1.252177848557    -1.055966036054     1.235050693302    12.000000000000
         C           -2.378709764376    -0.507943276073     0.603354194688    12.000000000000
         C           -2.227726058207     0.404115450202    -0.448941986631    12.000000000000
         C           -0.938689224089     0.768602072143    -0.868458305313    12.000000000000
         H           -0.822621816029     1.486176738507    -1.686680807343     1.007825032230
         H           -3.111408206060     0.827611614716    -0.935223437988     1.007825032230
         CL          -3.978752602034    -0.968838663311     1.131203653982    34.968852682000
         H           -1.378839725569    -1.770597058241     2.053630575031     1.007825032230
         H            0.906611341377    -1.120243191152     1.291605829847     1.007825032230
         H            2.258280960499    -1.372396729376    -1.500888956843     1.007825032230
         H            1.187633074089     0.452178313459    -2.869466492133     1.007825032230
         H            2.582981403603     1.589968242405    -2.453284241166     1.007825032230
         H            4.519638502972    -1.014147449967    -0.524781133983     1.007825032230
         H            4.583085632325     0.517769454479    -1.423314398894     1.007825032230
         H            3.484791594027     0.003261152082     1.395971544288     1.007825032230
         H            4.552304008109     1.342606918133     0.899572101443     1.007825032230
         H            1.853338306750     1.771089466686     1.202821686053     1.007825032230
         H            2.668352121303     2.495967674373    -0.201323713059     1.007825032230

  Running in c1 symmetry.

  Rotational constants: A =      0.07210  B =      0.01061  C =      0.01003 [cm^-1]
  Rotational constants: A =   2161.37955  B =    318.21369  C =    300.78757 [MHz]
  Nuclear repulsion =  826.847590785686862

  Charge       = 0
  Multiplicity = 1
  Electrons    = 102
  Nalpha       = 51
  Nbeta        = 51

  ==> Algorithm <==

  SCF Algorithm Type is DF.
  DIIS enabled.
  MOM disabled.
  Fractional occupation disabled.
  Guess Type is READ.
  Energy threshold   = 1.00e-10
  Density threshold  = 1.00e-10
  Integral threshold = 1.00e-12

  ==> Primary Basis <==

  Basis Set: CC-PVDZ
    Blend: CC-PVDZ
    Number of shells: 119
    Number of basis functions: 251
    Number of Cartesian functions: 264
    Spherical Harmonics?: true
    Max angular momentum: 2

   => Loading Basis Set <=

    Name: (CC-PVDZ AUX)
    Role: JKFIT
    Keyword: DF_BASIS_SCF
    atoms 1-12         entry C          line   121 file /home/maxbuskirk/.conda/envs/psifour/share/psi4/basis/cc-pvdz-jkfit.gbs 
    atoms 13-14, 16-26 entry H          line    51 file /home/maxbuskirk/.conda/envs/psifour/share/psi4/basis/cc-pvdz-jkfit.gbs 
    atoms 15           entry CL         line   667 file /home/maxbuskirk/.conda/envs/psifour/share/psi4/basis/cc-pvdz-jkfit.gbs 

   => Loading Basis Set <=

    Name: CC-PVDZ
    Role: ORBITAL
    Keyword: BASIS
    atoms 1-12         entry C          line   138 file /home/maxbuskirk/.conda/envs/psifour/share/psi4/basis/cc-pvdz.gbs 
    atoms 13-14, 16-26 entry H          line    22 file /home/maxbuskirk/.conda/envs/psifour/share/psi4/basis/cc-pvdz.gbs 
    atoms 15           entry CL         line   658 file /home/maxbuskirk/.conda/envs/psifour/share/psi4/basis/cc-pvdz.gbs 

  Reading orbitals from file /scratch1/maxbuskirk/rCl.mol.3568317.180.npy, no projection.

  ==> Integral Setup <==

  DFHelper Memory: AOs need 0.545 GiB; user supplied 43.306 GiB. Using in-core AOs.

  ==> MemDFJK: Density-Fitted J/K Matrices <==

    J tasked:                   Yes
    K tasked:                   Yes
    wK tasked:                   No
    OpenMP threads:               1
    Memory [MiB]:             44345
    Algorithm:                 Core
    Schwarz Cutoff:           1E-12
    Mask sparsity (%):      10.9395
    Fitting Condition:        1E-10

   => Auxiliary Basis Set <=

  Basis Set: (CC-PVDZ AUX)
    Blend: CC-PVDZ-JKFIT
    Number of shells: 441
    Number of basis functions: 1251
    Number of Cartesian functions: 1427
    Spherical Harmonics?: true
    Max angular momentum: 3

  Minimum eigenvalue in the overlap matrix is 3.0458455172E-04.
  Reciprocal condition number of the overlap matrix is 4.4280721283E-05.
    Using symmetric orthogonalization.

  ==> Pre-Iterations <==

  SCF Guess: Orbitals guess was supplied from a previous computation.

   -------------------------------------------------------
    Irrep   Nso     Nmo     Nalpha   Nbeta   Ndocc  Nsocc
   -------------------------------------------------------
     A        251     251      51      51      51       0
   -------------------------------------------------------
    Total     251     251      51      51      51       0
   -------------------------------------------------------

  ==> Iterations <==

                           Total Energy        Delta E     RMS |[F,P]|

   @DF-RHF iter   0:  -921.47924834771072   -9.21479e+02   1.99150e-04 
   @DF-RHF iter   1:  -921.49258713861514   -1.33388e-02   3.24799e-05 DIIS
   @DF-RHF iter   2:  -921.49264201488893   -5.48763e-05   1.37471e-05 DIIS
   @DF-RHF iter   3:  -921.49265063555447   -8.62067e-06   5.32799e-06 DIIS
   @DF-RHF iter   4:  -921.49265279478266   -2.15923e-06   1.55631e-06 DIIS
   @DF-RHF iter   5:  -921.49265295741748   -1.62635e-07   7.70206e-07 DIIS
   @DF-RHF iter   6:  -921.49265302005654   -6.26391e-08   3.23883e-07 DIIS
   @DF-RHF iter   7:  -921.49265303536447   -1.53079e-08   1.45376e-07 DIIS
   @DF-RHF iter   8:  -921.49265303901313   -3.64867e-09   7.09776e-08 DIIS
   @DF-RHF iter   9:  -921.49265303979962   -7.86486e-10   2.13585e-08 DIIS
   @DF-RHF iter  10:  -921.49265303987227   -7.26459e-11   6.52560e-09 DIIS
   @DF-RHF iter  11:  -921.49265303987568   -3.41061e-12   2.61754e-09 DIIS
   @DF-RHF iter  12:  -921.49265303987636   -6.82121e-13   7.28472e-10 DIIS
   @DF-RHF iter  13:  -921.49265303987772   -1.36424e-12   2.81873e-10 DIIS
   @DF-RHF iter  14:  -921.49265303987704    6.82121e-13   1.24544e-10 DIIS
   @DF-RHF iter  15:  -921.49265303987352    3.52429e-12   5.38722e-11 DIIS
  Energy and wave function converged.


  ==> Post-Iterations <==

    Orbital Energies [Eh]
    ---------------------

    Doubly Occupied:                                                      

       1A   -104.831037     2A    -11.305093     3A    -11.256954  
       4A    -11.256506     5A    -11.255919     6A    -11.252273  
       7A    -11.251564     8A    -11.246950     9A    -11.238959  
      10A    -11.238344    11A    -11.234709    12A    -11.233977  
      13A    -11.232601    14A    -10.557815    15A     -8.025454  
      16A     -8.022041    17A     -8.021935    18A     -1.191510  
      19A     -1.173593    20A     -1.111500    21A     -1.036342  
      22A     -1.024053    23A     -1.001367    24A     -0.952603  
      25A     -0.849813    26A     -0.835388    27A     -0.815201  
      28A     -0.777813    29A     -0.746940    30A     -0.698327  
      31A     -0.650529    32A     -0.645733    33A     -0.632238  
      34A     -0.624119    35A     -0.593834    36A     -0.578870  
      37A     -0.569838    38A     -0.568058    39A     -0.537982  
      40A     -0.527908    41A     -0.510866    42A     -0.486735  
      43A     -0.482753    44A     -0.475404    45A     -0.472575  
      46A     -0.455171    47A     -0.449591    48A     -0.412007  
      49A     -0.392613    50A     -0.345761    51A     -0.319518  

    Virtual:                                                              

      52A      0.118033    53A      0.122181    54A      0.168970  
      55A      0.186132    56A      0.195901    57A      0.203915  
      58A      0.225227    59A      0.229855    60A      0.240068  
      61A      0.247928    62A      0.249498    63A      0.253373  
      64A      0.258949    65A      0.275059    66A      0.294653  
      67A      0.297850    68A      0.328135    69A      0.336971  
      70A      0.346348    71A      0.363972    72A      0.382491  
      73A      0.400850    74A      0.407738    75A      0.436725  
      76A      0.449394    77A      0.472747    78A      0.489077  
      79A      0.497160    80A      0.512588    81A      0.562665  
      82A      0.600733    83A      0.617494    84A      0.624943  
      85A      0.633476    86A      0.644620    87A      0.654308  
      88A      0.660450    89A      0.674157    90A      0.686567  
      91A      0.698574    92A      0.708624    93A      0.712127  
      94A      0.715423    95A      0.721211    96A      0.731188  
      97A      0.735552    98A      0.736398    99A      0.750626  
     100A      0.775720   101A      0.777034   102A      0.783780  
     103A      0.797457   104A      0.817428   105A      0.824505  
     106A      0.842214   107A      0.851308   108A      0.859790  
     109A      0.863761   110A      0.871591   111A      0.876137  
     112A      0.878913   113A      0.885262   114A      0.888145  
     115A      0.894619   116A      0.901373   117A      0.902333  
     118A      0.906137   119A      0.916198   120A      0.918436  
     121A      0.933601   122A      0.936266   123A      0.943000  
     124A      0.962218   125A      0.967588   126A      0.981788  
     127A      0.988413   128A      0.995402   129A      1.020748  
     130A      1.040954   131A      1.073665   132A      1.119973  
     133A      1.130132   134A      1.138653   135A      1.146135  
     136A      1.150659   137A      1.190291   138A      1.204326  
     139A      1.216500   140A      1.230896   141A      1.254637  
     142A      1.268047   143A      1.287895   144A      1.292384  
     145A      1.311380   146A      1.331801   147A      1.357018  
     148A      1.373094   149A      1.380487   150A      1.407633  
     151A      1.440147   152A      1.451200   153A      1.466646  
     154A      1.477769   155A      1.482580   156A      1.484630  
[...]
	   88 D(1,2,7,8)      =    135.163037    -0.000000    -0.451746   134.711291
	   89 D(1,2,7,12)     =    -46.997255    -0.000000    -0.464890   -47.462145
	   90 D(1,6,2,3)      =   -110.240530    -0.000000    -0.019010  -110.259540
	   91 D(1,6,2,7)      =    108.751434    -0.000000    -0.025532   108.725903
	   92 D(1,6,5,4)      =     83.056241     0.000000     0.059838    83.116079
	   93 D(1,6,5,21)     =   -155.846698     0.000000     0.071559  -155.775138
	   94 D(1,6,5,22)     =    -36.514510     0.000000     0.079471   -36.435039
	   95 D(2,1,6,5)      =    -96.398499    -0.000000     0.009621   -96.388878
	   96 D(2,1,6,18)     =    110.190690    -0.000000    -0.003311   110.187379
	   97 D(2,3,4,5)      =     31.651324    -0.000000     0.078465    31.729789
	   98 D(2,3,4,23)     =    -84.734154     0.000000     0.089537   -84.644617
	   99 D(2,3,4,24)     =    155.958354    -0.000000     0.076873   156.035227
	  100 D(2,6,1,19)     =   -107.870200    -0.000000     0.011174  -107.859026
	  101 D(2,6,1,20)     =    108.185671    -0.000000    -0.003390   108.182281
	  102 D(2,6,5,4)      =     18.285481     0.000000     0.059935    18.345416
	  103 D(2,6,5,21)     =    139.382542     0.000000     0.071657   139.454199
	  104 D(2,6,5,22)     =   -101.285271     0.000000     0.079569  -101.205702
	  105 D(2,7,8,9)      =    178.037478    -0.000000    -0.017661   178.019817
	  106 D(2,7,8,17)     =     -2.507808    -0.000000    -0.016584    -2.524392
	  107 D(2,7,12,11)    =   -178.091030    -0.000000     0.016989  -178.074041
	  108 D(2,7,12,13)    =      1.880632    -0.000000     0.034259     1.914892
	  109 D(3,2,1,6)      =     95.149990    -0.000000    -0.013294    95.136695
	  110 D(3,2,1,19)     =   -157.584329    -0.000000    -0.011202  -157.595531
	  111 D(3,2,1,20)     =    -12.850047    -0.000000    -0.012835   -12.862881
	  112 D(3,2,6,5)      =      1.180835    -0.000000    -0.011256     1.169579
	  113 D(3,2,6,18)     =    143.443393     0.000000    -0.017174   143.426218
	  114 D(3,2,7,8)      =    -72.738388    -0.000000    -0.447562   -73.185950
	  115 D(3,2,7,12)     =    105.101320    -0.000000    -0.460706   104.640614
	  116 D(3,4,5,6)      =    -30.745737     0.000000    -0.084558   -30.830296
	  117 D(3,4,5,21)     =   -151.694219     0.000000    -0.091677  -151.785896
	  118 D(3,4,5,22)     =     88.725894     0.000000    -0.095661    88.630233
	  119 D(4,3,2,6)      =    -20.227077     0.000000    -0.041857   -20.268934
	  120 D(4,3,2,7)      =    122.426873     0.000000    -0.038669   122.388204
	  121 D(4,5,6,18)     =   -124.100056     0.000000     0.070399  -124.029657
	  122 D(5,4,3,25)     =    152.346612     0.000000     0.092556   152.439168
	  123 D(5,4,3,26)     =    -87.735976     0.000000     0.096712   -87.639265
	  124 D(5,6,1,19)     =    155.731301    -0.000000     0.020795   155.752097
	  125 D(5,6,1,20)     =     11.787172    -0.000000     0.006231    11.793403
	  126 D(5,6,2,7)      =   -139.827201    -0.000000    -0.017778  -139.844979
	  127 D(6,1,2,7)      =   -111.938937     0.000000    -0.010353  -111.949290
	  128 D(6,2,1,19)     =    107.265681    -0.000000     0.002092   107.267773
	  129 D(6,2,1,20)     =   -108.000037    -0.000000     0.000460  -107.999577
	  130 D(6,2,3,25)     =   -141.531735    -0.000000    -0.058854  -141.590589
	  131 D(6,2,3,26)     =     99.504990    -0.000000    -0.071632    99.433358
	  132 D(6,2,7,8)      =     63.918461    -0.000000    -0.445675    63.472786
	  133 D(6,2,7,12)     =   -118.241830    -0.000000    -0.458819  -118.700650
	  134 D(6,5,4,23)     =     85.604518    -0.000000    -0.096563    85.507955
	  135 D(6,5,4,24)     =   -154.979079    -0.000000    -0.084192  -155.063271
	  136 D(7,2,1,19)     =     -4.673256    -0.000000    -0.008261    -4.681517
	  137 D(7,2,1,20)     =    140.061027    -0.000000    -0.009894   140.051133
	  138 D(7,2,3,25)     =      1.122215    -0.000000    -0.055666     1.066549
	  139 D(7,2,3,26)     =   -117.841060    -0.000000    -0.068444  -117.909504
	  140 D(7,2,6,18)     =      2.435357    -0.000000    -0.023696     2.411661
	  141 D(7,8,9,10)     =     -0.013948     0.000000     0.000574    -0.013375
	  142 D(7,8,9,16)     =    179.673840     0.000000    -0.000283   179.673557
	  143 D(7,12,11,10)   =      0.171427     0.000000    -0.002195     0.169232
	  144 D(7,12,11,14)   =   -179.872230    -0.000000     0.003854  -179.868376
	  145 D(8,7,12,11)    =     -0.211095    -0.000000     0.005063    -0.206032
	  146 D(8,7,12,13)    =    179.760567    -0.000000     0.022333   179.782900
	  147 D(8,9,10,11)    =     -0.028901    -0.000000     0.002421    -0.026480
	  148 D(8,9,10,15)    =    179.803013     0.000000     0.000786   179.803799
	  149 D(9,8,7,12)     =      0.131643     0.000000    -0.004263     0.127380
	  150 D(9,10,11,12)   =     -0.048428     0.000000    -0.001622    -0.050050
	  151 D(9,10,11,14)   =    179.994862     0.000000    -0.007629   179.987233
	  152 D(10,9,8,17)    =   -179.468968     0.000000    -0.000662  -179.469630
	  153 D(10,11,12,13)  =   -179.800258    -0.000000    -0.019453  -179.819711
	  154 D(11,10,9,16)   =   -179.719640    -0.000000     0.003246  -179.716393
	  155 D(12,7,8,17)    =    179.586357     0.000000    -0.003186   179.583171
	  156 D(12,11,10,15)  =   -179.880163    -0.000000     0.000002  -179.880161
	  157 D(13,12,11,14)  =      0.156085    -0.000000    -0.013403     0.142682
	  158 D(14,11,10,15)  =      0.163126    -0.000000    -0.006005     0.157122
	  159 D(15,10,9,16)   =      0.112274     0.000000     0.001612     0.113886
	  160 D(16,9,8,17)    =      0.218820     0.000000    -0.001519     0.217302
	  161 D(18,6,1,19)    =      2.320491    -0.000000     0.007863     2.328354
	  162 D(18,6,1,20)    =   -141.623639    -0.000000    -0.006701  -141.630340
	  163 D(18,6,5,21)    =     -3.002995     0.000000     0.082121    -2.920874
	  164 D(18,6,5,22)    =    116.329192     0.000000     0.090033   116.419225
	  165 D(21,5,4,23)    =    -35.343963    -0.000000    -0.103682   -35.447645
	  166 D(21,5,4,24)    =     84.072440    -0.000000    -0.091311    83.981129
	  167 D(22,5,4,23)    =   -154.923850    -0.000000    -0.107666  -155.031516
	  168 D(22,5,4,24)    =    -35.507447    -0.000000    -0.095294   -35.602742
	  169 D(23,4,3,25)    =     35.961133     0.000000     0.103628    36.064761
	  170 D(23,4,3,26)    =    155.878545     0.000000     0.107784   155.986329
	  171 D(24,4,3,25)    =    -83.346359     0.000000     0.090964   -83.255394
	  172 D(24,4,3,26)    =     36.571053     0.000000     0.095120    36.666173
	 ---------------------------------------------------------------------------
	Successfully symmetrized geometry.

  ==> Convergence Check <==

  Measures of convergence in internal coordinates in au.
  Criteria marked as inactive (o), active & met (*), and active & unmet ( ).
  ---------------------------------------------------------------------------------------------
   Step     Total Energy     Delta E     MAX Force     RMS Force      MAX Disp      RMS Disp   
  ---------------------------------------------------------------------------------------------
    Convergence Criteria    1.00e-06 *    3.00e-04 *             o    1.20e-03 *             o
  ---------------------------------------------------------------------------------------------
      7    -923.37117152   -7.64e-07 *    4.90e-05 *    1.17e-05 o    8.11e-03      1.63e-03 o  ~
  ---------------------------------------------------------------------------------------------


  **** Optimization is complete! (in 7 steps) ****

  ==> Optimization Summary <==

  Measures of convergence in internal coordinates in au.
  --------------------------------------------------------------------------------------------------------------- ~
   Step         Total Energy             Delta E       MAX Force       RMS Force        MAX Disp        RMS Disp  ~
  --------------------------------------------------------------------------------------------------------------- ~
      1    -923.370747321303   -923.370747321303      0.00604834      0.00100755      0.02467094      0.00924208  ~
      2    -923.371125870617     -0.000378549313      0.00192024      0.00024837      0.01305202      0.00443878  ~
      3    -923.371162024707     -0.000036154090      0.00039541      0.00006645      0.00992183      0.00312017  ~
      4    -923.371167305132     -0.000005280425      0.00012420      0.00002624      0.00880615      0.00180337  ~
      5    -923.371169092150     -0.000001787018      0.00011904      0.00001810      0.01613602      0.00296241  ~
      6    -923.371170759499     -0.000001667349      0.00009615      0.00001879      0.00974930      0.00174104  ~
      7    -923.371171523935     -0.000000764437      0.00004903      0.00001166      0.00811385      0.00162770  ~
  --------------------------------------------------------------------------------------------------------------- ~

	Writing optimization data to binary file.
	Final energy is   -923.3711715239355
	Final (previous) structure:
	Cartesian Geometry (in Angstrom)
	    C     1.9608829881   0.7486228808  -2.1227613545
	    C     1.5989356320   0.6298916835  -0.6553133503
	    C     2.4191233438   1.5190155939   0.3063656941
	    C     3.7053302867   0.7097285699   0.5932056000
	    C     3.9756439017  -0.0956335258  -0.7000609763
	    C     2.5821767759  -0.3555721669  -1.2865360906
	    C     0.2105774847   0.2245526879  -0.2504060453
	    C     0.0187357283  -0.7346275644   0.7646980777
	    C    -1.2671105814  -1.0987428679   1.1875786055
	    C    -2.3819632396  -0.4948227634   0.5871162942
	    C    -2.2207037198   0.4618069015  -0.4230479291
	    C    -0.9249397350   0.8155871784  -0.8329742838
	    H    -0.7970758986   1.5657461343  -1.6203269784
	    H    -3.0985977511   0.9241971135  -0.8821695899
	   CL    -3.9933023660  -0.9465592258   1.1046558223
	    H    -1.4085314596  -1.8473007493   1.9717668387
	    H     0.8907572036  -1.2113087371   1.2260481387
	    H     2.2662090412  -1.3836176199  -1.4921186292
	    H     1.2034342297   0.4542993152  -2.8566262342
	    H     2.6017349336   1.5832760974  -2.4305837914
	    H     4.5128999512  -1.0368417005  -0.4938361121
	    H     4.5974987621   0.4859470167  -1.4061815297
	    H     3.5023316335   0.0008474802   1.4182874571
	    H     4.5572786391   1.3409653202   0.9016441355
	    H     1.8528160360   1.7377475269   1.2269815745
	    H     2.6575573966   2.4885265347  -0.1697539938
	Saving final (previous) structure.
	Cleaning optimization helper files.
			--------------------------
			 OPTKING Finished Execution 
			--------------------------

    Final optimized geometry and variables:
    Molecular point group: c1
    Full point group: C1

    Geometry (in Angstrom), charge = 0, multiplicity = 1:

    C            1.960882995807     0.748622883720    -2.122761362803
    C            1.598935638301     0.629891686019    -0.655313352909
    C            2.419123353283     1.519015599860     0.306365695285
    C            3.705330301218     0.709728572681     0.593205602299
    C            3.975643917367    -0.095633526212    -0.700060979100
    C            2.582176786086    -0.355572168331    -1.286536095657
    C            0.210577485510     0.224552688800    -0.250406046333
    C            0.018735728343    -0.734627567316     0.764698080701
    C           -1.267110586428    -1.098742872196     1.187578610121
    C           -2.381963248952    -0.494822765296     0.587116296473
    C           -2.220703728569     0.461806903293    -0.423047930721
    C           -0.924939738642     0.815587181655    -0.832974287080
    H           -0.797075901778     1.565746140423    -1.620326984799
    H           -3.098597763261     0.924197117101    -0.882169593396
    CL          -3.993302381658    -0.946559229523     1.104655826621
    H           -1.408531465113    -1.847300756580     1.971766846435
    H            0.890757207076    -1.211308741894     1.226048143531
    H            2.266209050140    -1.383617625360    -1.492118635108
    H            1.203434234478     0.454299317036    -2.856626245427
    H            2.601734943806     1.583276103592    -2.430583800943
    H            4.512899968970    -1.036841704605    -0.493836114019
    H            4.597498780142     0.485947018564    -1.406181535190
    H            3.502331647254     0.000847480188     1.418287462657
    H            4.557278657018     1.340965325441     0.901644139033
    H            1.852816043327     1.737747533713     1.226981579301
    H            2.657557407046     2.488526544434    -0.169753994508

	Removing binary optimization data file.
	Cleaning optimization helper files.


Properties will be evaluated at   0.000000,   0.000000,   0.000000 [a0]
OEProp: No title given, name of density matrix used for the following properties is 'SCF density'
  Mulliken Charges: (a.u.)
   Center  Symbol    Alpha    Beta     Spin     Total
       1     C     2.96480  2.96480  0.00000  0.07040
       2     C     3.12181  3.12181  0.00000 -0.24362
       3     C     2.97350  2.97350  0.00000  0.05300
       4     C     3.02215  3.02215  0.00000 -0.04431
       5     C     2.99302  2.99302  0.00000  0.01396
       6     C     3.05127  3.05127  0.00000 -0.10255
       7     C     3.03710  3.03710  0.00000 -0.07421
       8     C     2.98683  2.98683  0.00000  0.02634
       9     C     2.95808  2.95808  0.00000  0.08384
      10     C     3.09029  3.09029  0.00000 -0.18058
      11     C     2.95839  2.95839  0.00000  0.08322
      12     C     2.99090  2.99090  0.00000  0.01821
      13     H     0.49262  0.49262  0.00000  0.01476
      14     H     0.48622  0.48622  0.00000  0.02755
      15    CL     8.53287  8.53287  0.00000 -0.06573
      16     H     0.48647  0.48647  0.00000  0.02706
      17     H     0.49403  0.49403  0.00000  0.01194
      18     H     0.49009  0.49009  0.00000  0.01981
      19     H     0.48023  0.48023  0.00000  0.03954
      20     H     0.48421  0.48421  0.00000  0.03158
      21     H     0.48275  0.48275  0.00000  0.03451
      22     H     0.48396  0.48396  0.00000  0.03207
      23     H     0.48420  0.48420  0.00000  0.03161
      24     H     0.48689  0.48689  0.00000  0.02622
      25     H     0.48285  0.48285  0.00000  0.03430
      26     H     0.48445  0.48445  0.00000  0.03109

   Total alpha = 51.00000, Total beta = 51.00000, Total charge = -0.00000

    Molecular point group: c1
    Full point group: C1

    Geometry (in Angstrom), charge = 0, multiplicity = 1:

       Center              X                  Y                   Z               Mass       
    ------------   -----------------  -----------------  -----------------  -----------------
         C            1.960882995807     0.748622883720    -2.122761362803    12.000000000000
         C            1.598935638301     0.629891686019    -0.655313352909    12.000000000000
         C            2.419123353283     1.519015599860     0.306365695285    12.000000000000
         C            3.705330301218     0.709728572681     0.593205602299    12.000000000000
         C            3.975643917367    -0.095633526212    -0.700060979100    12.000000000000
         C            2.582176786086    -0.355572168331    -1.286536095657    12.000000000000
         C            0.210577485510     0.224552688800    -0.250406046333    12.000000000000
         C            0.018735728343    -0.734627567316     0.764698080701    12.000000000000
         C           -1.267110586428    -1.098742872196     1.187578610121    12.000000000000
         C           -2.381963248952    -0.494822765296     0.587116296473    12.000000000000
         C           -2.220703728569     0.461806903293    -0.423047930721    12.000000000000
         C           -0.924939738642     0.815587181655    -0.832974287080    12.000000000000
         H           -0.797075901778     1.565746140423    -1.620326984799     1.007825032230
         H           -3.098597763261     0.924197117101    -0.882169593396     1.007825032230
         CL          -3.993302381658    -0.946559229523     1.104655826621    34.968852682000
         H           -1.408531465113    -1.847300756580     1.971766846435     1.007825032230
         H            0.890757207076    -1.211308741894     1.226048143531     1.007825032230
         H            2.266209050140    -1.383617625360    -1.492118635108     1.007825032230
         H            1.203434234478     0.454299317036    -2.856626245427     1.007825032230
         H            2.601734943806     1.583276103592    -2.430583800943     1.007825032230
         H            4.512899968970    -1.036841704605    -0.493836114019     1.007825032230
         H            4.597498780142     0.485947018564    -1.406181535190     1.007825032230
         H            3.502331647254     0.000847480188     1.418287462657     1.007825032230
         H            4.557278657018     1.340965325441     0.901644139033     1.007825032230
         H            1.852816043327     1.737747533713     1.226981579301     1.007825032230
         H            2.657557407046     2.488526544434    -0.169753994508     1.007825032230



  Variable Map:
  ----------------------------------------------------------------------------
  "CC D1 DIAGNOSTIC"                      =>       0.028789216816
  "CC D2 DIAGNOSTIC"                      =>       0.188529875925
  "CC NEW D1 DIAGNOSTIC"                  =>       0.028789216816
  "CC T1 DIAGNOSTIC"                      =>       0.007616965658
  "CCSD CORRELATION ENERGY"               =>      -1.877524598260
  "CCSD DOUBLES ENERGY"                   =>      -1.877524598260
  "CCSD ITERATIONS"                       =>      15.000000000000
  "CCSD OPPOSITE-SPIN CORRELATION ENERGY" =>      -1.453057561324
  "CCSD SAME-SPIN CORRELATION ENERGY"     =>      -0.424467036936
  "CCSD SINGLES ENERGY"                   =>       0.000000000000
  "CCSD TOTAL ENERGY"                     =>    -923.371171523935
  "CURRENT CORRELATION ENERGY"            =>      -1.877524598260
  "CURRENT DIPOLE X"                      =>       2.303642927216
  "CURRENT DIPOLE Y"                      =>       0.519009155406
  "CURRENT DIPOLE Z"                      =>      -0.577276289500
  "CURRENT ENERGY"                        =>    -923.371171523935
  "CURRENT REFERENCE ENERGY"              =>    -921.492914219376
  "HF TOTAL ENERGY"                       =>    -921.492914219376
  "LCCSD (+LMP2) TOTAL ENERGY"            =>    -923.371171523935
  "MP2 CORRELATION ENERGY"                =>      -1.790172152193
  "MP2 DOUBLES ENERGY"                    =>      -1.790172152193
  "MP2 OPPOSITE-SPIN CORRELATION ENERGY"  =>      -1.318697075988
  "MP2 SAME-SPIN CORRELATION ENERGY"      =>      -0.471475076206
  "MP2 SINGLES ENERGY"                    =>      -0.000000000000
  "MP2 TOTAL ENERGY"                      =>    -923.283819077868
  "NUCLEAR REPULSION ENERGY"              =>     826.774379318813
  "ONE-ELECTRON ENERGY"                   =>   -2901.722691748177
  "OPTIMIZATION ITERATIONS"               =>       7.000000000000
  "PCM POLARIZATION ENERGY"               =>       0.000000000000
  "PE ENERGY"                             =>       0.000000000000
  "SCF DIPOLE X"                          =>       2.303642927216
  "SCF DIPOLE Y"                          =>       0.519009155406
  "SCF DIPOLE Z"                          =>      -0.577276289500
  "SCF ITERATION ENERGY"                  =>    -921.492914219376
  "SCF ITERATIONS"                        =>      13.000000000000
  "SCF TOTAL ENERGY"                      =>    -921.492914219376
  "TWO-ELECTRON ENERGY"                   =>    1153.455398209989



    Psi4 stopped on: Friday, 11 February 2022 02:12AM
    Psi4 wall time for execution: 1 day, 22:19:00.69

*** Psi4 exiting successfully. Buy a developer a beer!
