
    -----------------------------------------------------------------------
          Psi4: An Open-Source Ab Initio Electronic Structure Package
                               Psi4 1.4 release

                         Git: Rev {HEAD} 9485035 


    D. G. A. Smith, L. A. Burns, A. C. Simmonett, R. M. Parrish,
    M. C. Schieber, R. Galvelis, P. Kraus, H. Kruse, R. Di Remigio,
    A. Alenaizan, A. M. James, S. Lehtola, J. P. Misiewicz, M. Scheurer,
    R. A. Shaw, J. B. Schriber, Y. Xie, Z. L. Glick, D. A. Sirianni,
    J. S. O'Brien, J. M. Waldrop, A. Kumar, E. G. Hohenstein,
    B. P. Pritchard, B. R. Brooks, H. F. Schaefer III, A. Yu. Sokolov,
    K. Patkowski, A. E. DePrince III, U. Bozkaya, R. A. King,
    F. A. Evangelista, J. M. Turney, T. D. Crawford, C. D. Sherrill,
    J. Chem. Phys. 152(18) 184108 (2020). https://doi.org/10.1063/5.0006002

                            Additional Code Authors
    E. T. Seidl, C. L. Janssen, E. F. Valeev, M. L. Leininger,
    J. F. Gonthier, R. M. Richard, H. R. McAlexander, M. Saitow, X. Wang,
    P. Verma, and M. H. Lechner

             Previous Authors, Complete List of Code Contributors,
                       and Citations for Specific Modules
    https://github.com/psi4/psi4/blob/master/codemeta.json
    https://github.com/psi4/psi4/graphs/contributors
    http://psicode.org/psi4manual/master/introduction.html#citing-psifour

    -----------------------------------------------------------------------


    Psi4 started on: Tuesday, 23 November 2021 09:56PM

    Process ID: 1601956
    Host:       skystd35.palmetto.clemson.edu
    PSIDATADIR: /home/maxbuskirk/.conda/envs/psifour/share/psi4
    Memory:     500.0 MiB
    Threads:    1
    
  ==> Input File <==

--------------------------------------------------------------------------
molecule mol {
0 1
 C     0.355130     0.111221    -1.467412
 C    -0.000000    -0.000000     0.000000
 C     0.828100     0.881905     0.953535
 C     2.091555     0.051810     1.254924
 C     2.370953    -0.722993    -0.049363
 C     0.983556    -0.988346    -0.633510
 C    -1.373576    -0.413221     0.414448
 C    -1.542792    -1.321567     1.480545
 C    -2.825059    -1.692334     1.911870
 C    -3.961673    -1.159299     1.279913
 C    -3.805653    -0.253936     0.218219
 C    -2.519836     0.117392    -0.208007
 H    -2.398432     0.829298    -1.030811
 H    -4.686419     0.165723    -0.277661
 O    -5.224199    -1.526822     1.698665
 H    -2.939181    -2.402495     2.736730
 H    -0.656700    -1.746978     1.964470
 H     0.659437    -2.015061    -0.827996
 H    -0.405740    -0.188168    -2.193765
 H     0.996446     0.943276    -1.777222
 H     2.921789    -1.659184     0.134099
 H     2.979683    -0.115336    -0.742780
 H     1.856488    -0.672951     2.054626
 H     2.945544     0.661232     1.596113
 H     0.256631     1.122533     1.863868
 H     1.092347     1.837771     0.466059
 C    -6.184001    -0.867876     0.921124
 H    -7.180299    -1.157899     1.251575
 H    -6.063944     0.208814     1.031793
 H    -6.054349    -1.141975    -0.124811
}

set scf_type df
set basis cc-pVDZ
set reference rhf

mol.update_geometry()
mol.symmetrize(1e-3)

e, wfn = optimize('mp2', return_wfn=True)
oeprop(wfn, "MULLIKEN_CHARGES")
mol.print_out()
print_variables()
--------------------------------------------------------------------------

Scratch directory: /local_scratch/pbs.4067448.pbs02/
gradient() will perform analytic gradient computation.

*** tstart() called on skystd35.palmetto.clemson.edu
*** at Tue Nov 23 21:56:41 2021

   => Loading Basis Set <=

    Name: CC-PVDZ
    Role: ORBITAL
    Keyword: BASIS
    atoms 1-12, 27            entry C          line   138 file /home/maxbuskirk/.conda/envs/psifour/share/psi4/basis/cc-pvdz.gbs 
    atoms 13-14, 16-26, 28-30 entry H          line    22 file /home/maxbuskirk/.conda/envs/psifour/share/psi4/basis/cc-pvdz.gbs 
    atoms 15                  entry O          line   198 file /home/maxbuskirk/.conda/envs/psifour/share/psi4/basis/cc-pvdz.gbs 


         ---------------------------------------------------------
                                   SCF
               by Justin Turney, Rob Parrish, Andy Simmonett
                          and Daniel G. A. Smith
                              RHF Reference
                        1 Threads,    500 MiB Core
         ---------------------------------------------------------

  ==> Geometry <==

    Molecular point group: c1
    Full point group: C1

    Geometry (in Angstrom), charge = 0, multiplicity = 1:

       Center              X                  Y                   Z               Mass       
    ------------   -----------------  -----------------  -----------------  -----------------
         C            1.882703824103     0.668744759916    -2.032251349099    12.000000000000
         C            1.527573824103     0.557523759916    -0.564839349099    12.000000000000
         C            2.355673824103     1.439428759916     0.388695650901    12.000000000000
         C            3.619128824103     0.609333759916     0.690084650901    12.000000000000
         C            3.898526824103    -0.165469240084    -0.614202349099    12.000000000000
         C            2.511129824103    -0.430822240084    -1.198349349099    12.000000000000
         C            0.153997824103     0.144302759916    -0.150391349099    12.000000000000
         C           -0.015218175897    -0.764043240084     0.915705650901    12.000000000000
         C           -1.297485175897    -1.134810240084     1.347030650901    12.000000000000
         C           -2.434099175897    -0.601775240084     0.715073650901    12.000000000000
         C           -2.278079175897     0.303587759916    -0.346620349099    12.000000000000
         C           -0.992262175897     0.674915759916    -0.772846349099    12.000000000000
         H           -0.870858175897     1.386821759916    -1.595650349099     1.007825032230
         H           -3.158845175897     0.723246759916    -0.842500349099     1.007825032230
         O           -3.696625175897    -0.969298240084     1.133825650901    15.994914619570
         H           -1.411607175897    -1.844971240084     2.171890650901     1.007825032230
         H            0.870873824103    -1.189454240084     1.399630650901     1.007825032230
         H            2.187010824103    -1.457537240084    -1.392835349099     1.007825032230
         H            1.121833824103     0.369355759916    -2.758604349099     1.007825032230
         H            2.524019824103     1.500799759916    -2.342061349099     1.007825032230
         H            4.449362824103    -1.101660240084    -0.430740349099     1.007825032230
         H            4.507256824103     0.442187759916    -1.307619349099     1.007825032230
         H            3.384061824103    -0.115427240084     1.489786650901     1.007825032230
         H            4.473117824103     1.218755759916     1.031273650901     1.007825032230
         H            1.784204824103     1.680056759916     1.299028650901     1.007825032230
         H            2.619920824103     2.395294759916    -0.098780349099     1.007825032230
         C           -4.656427175897    -0.310352240084     0.356284650901    12.000000000000
         H           -5.652725175897    -0.600375240084     0.686735650901     1.007825032230
         H           -4.536370175897     0.766337759916     0.466953650901     1.007825032230
         H           -4.526775175897    -0.584451240084    -0.689650349099     1.007825032230

  Running in c1 symmetry.

  Rotational constants: A =      0.06986  B =      0.01117  C =      0.01049 [cm^-1]
  Rotational constants: A =   2094.25887  B =    334.79267  C =    314.40141 [MHz]
  Nuclear repulsion =  862.218940092971707

  Charge       = 0
  Multiplicity = 1
  Electrons    = 102
  Nalpha       = 51
  Nbeta        = 51

  ==> Algorithm <==

  SCF Algorithm Type is DF.
  DIIS enabled.
  MOM disabled.
  Fractional occupation disabled.
  Guess Type is SAD.
  Energy threshold   = 1.00e-10
  Density threshold  = 1.00e-10
  Integral threshold = 1.00e-12

  ==> Primary Basis <==

  Basis Set: CC-PVDZ
    Blend: CC-PVDZ
    Number of shells: 132
    Number of basis functions: 276
    Number of Cartesian functions: 290
    Spherical Harmonics?: true
    Max angular momentum: 2

   => Loading Basis Set <=

    Name: (CC-PVDZ AUX)
    Role: JKFIT
    Keyword: DF_BASIS_SCF
    atoms 1-12, 27            entry C          line   121 file /home/maxbuskirk/.conda/envs/psifour/share/psi4/basis/cc-pvdz-jkfit.gbs 
    atoms 13-14, 16-26, 28-30 entry H          line    51 file /home/maxbuskirk/.conda/envs/psifour/share/psi4/basis/cc-pvdz-jkfit.gbs 
    atoms 15                  entry O          line   221 file /home/maxbuskirk/.conda/envs/psifour/share/psi4/basis/cc-pvdz-jkfit.gbs 

  ==> Integral Setup <==

  ==> DiskDFJK: Density-Fitted J/K Matrices <==

    J tasked:                  Yes
    K tasked:                  Yes
    wK tasked:                  No
    OpenMP threads:              1
    Integrals threads:           1
    Memory [MiB]:              375
    Algorithm:                Core
    Integral Cache:           NONE
    Schwarz Cutoff:          1E-12
    Fitting Condition:       1E-10

   => Auxiliary Basis Set <=

  Basis Set: (CC-PVDZ AUX)
    Blend: CC-PVDZ-JKFIT
    Number of shells: 480
    Number of basis functions: 1348
    Number of Cartesian functions: 1534
    Spherical Harmonics?: true
    Max angular momentum: 3

  Minimum eigenvalue in the overlap matrix is 3.3124133721E-04.
  Reciprocal condition number of the overlap matrix is 4.7843353131E-05.
    Using symmetric orthogonalization.

  ==> Pre-Iterations <==

  SCF Guess: Superposition of Atomic Densities via on-the-fly atomic UHF (no occupation information).

   -------------------------
    Irrep   Nso     Nmo    
   -------------------------
     A        276     276 
   -------------------------
    Total     276     276
   -------------------------

  ==> Iterations <==

                           Total Energy        Delta E     RMS |[F,P]|

   @DF-RHF iter SAD:  -576.14285792212831   -5.76143e+02   0.00000e+00 
   @DF-RHF iter   1:  -576.16979139408591   -2.69335e-02   2.25877e-03 DIIS
   @DF-RHF iter   2:  -576.40157792451691   -2.31787e-01   9.97554e-04 DIIS
   @DF-RHF iter   3:  -576.44132028365004   -3.97424e-02   2.86456e-04 DIIS
   @DF-RHF iter   4:  -576.44565793807976   -4.33765e-03   1.07695e-04 DIIS
   @DF-RHF iter   5:  -576.44617425672504   -5.16319e-04   2.11709e-05 DIIS
   @DF-RHF iter   6:  -576.44620088321449   -2.66265e-05   7.27991e-06 DIIS
   @DF-RHF iter   7:  -576.44620411180085   -3.22859e-06   2.08172e-06 DIIS
   @DF-RHF iter   8:  -576.44620451891126   -4.07110e-07   6.95570e-07 DIIS
   @DF-RHF iter   9:  -576.44620457226358   -5.33523e-08   2.56473e-07 DIIS
   @DF-RHF iter  10:  -576.44620457983331   -7.56972e-09   1.03488e-07 DIIS
   @DF-RHF iter  11:  -576.44620458176757   -1.93427e-09   5.33770e-08 DIIS
   @DF-RHF iter  12:  -576.44620458231225   -5.44674e-10   2.45523e-08 DIIS
   @DF-RHF iter  13:  -576.44620458246209   -1.49839e-10   8.52014e-09 DIIS
   @DF-RHF iter  14:  -576.44620458247687   -1.47793e-11   2.69754e-09 DIIS
   @DF-RHF iter  15:  -576.44620458247721   -3.41061e-13   8.19892e-10 DIIS
   @DF-RHF iter  16:  -576.44620458247914   -1.93268e-12   3.92637e-10 DIIS
   @DF-RHF iter  17:  -576.44620458247743    1.70530e-12   2.25539e-10 DIIS
   @DF-RHF iter  18:  -576.44620458247709    3.41061e-13   1.05426e-10 DIIS
   @DF-RHF iter  19:  -576.44620458247675    3.41061e-13   4.51627e-11 DIIS
  Energy and wave function converged.


  ==> Post-Iterations <==

    Orbital Energies [Eh]
    ---------------------

    Doubly Occupied:                                                      

       1A    -20.584610     2A    -11.300297     3A    -11.281967  
       4A    -11.242850     5A    -11.241851     6A    -11.236871  
       7A    -11.236227     8A    -11.235458     9A    -11.234162  
      10A    -11.230643    11A    -11.229287    12A    -11.226537  
      13A    -11.225750    14A    -11.225050    15A     -1.413458  
      16A     -1.179925    17A     -1.133878    18A     -1.034880  
      19A     -1.014590    20A     -1.009810    21A     -0.957022  
      22A     -0.937025    23A     -0.845675    24A     -0.818483  
      25A     -0.808681    26A     -0.771684    27A     -0.737029  
      28A     -0.712210    29A     -0.675921    30A     -0.661397  
      31A     -0.657802    32A     -0.629596    33A     -0.621691  
      34A     -0.592772    35A     -0.584451    36A     -0.572408  
      37A     -0.565887    38A     -0.561133    39A     -0.539523  
      40A     -0.520462    41A     -0.513303    42A     -0.481019  
      43A     -0.478067    44A     -0.476541    45A     -0.468886  
      46A     -0.466030    47A     -0.451471    48A     -0.404374  
      49A     -0.383054    50A     -0.334452    51A     -0.299173  

    Virtual:                                                              

      52A      0.127681    53A      0.149016    54A      0.178406  
      55A      0.191129    56A      0.201624    57A      0.210369  
      58A      0.213217    59A      0.233375    60A      0.236428  
      61A      0.248579    62A      0.252827    63A      0.259162  
      64A      0.264832    65A      0.269995    66A      0.273022  
      67A      0.287422    68A      0.302838    69A      0.307539  
      70A      0.324161    71A      0.342064    72A      0.351831  
      73A      0.361003    74A      0.375377    75A      0.395895  
      76A      0.411526    77A      0.417058    78A      0.446185  
      79A      0.463262    80A      0.478554    81A      0.496264  
      82A      0.514870    83A      0.525110    84A      0.536445  
      85A      0.591685    86A      0.623536    87A      0.624802  
      88A      0.631114    89A      0.641567    90A      0.662016  
      91A      0.667453    92A      0.674303    93A      0.681432  
      94A      0.694868    95A      0.712786    96A      0.714527  
      97A      0.716765    98A      0.728230    99A      0.739355  
     100A      0.743267   101A      0.748121   102A      0.751868  
     103A      0.763732   104A      0.791251   105A      0.793607  
     106A      0.814818   107A      0.825842   108A      0.836360  
     109A      0.843180   110A      0.850746   111A      0.855967  
     112A      0.865964   113A      0.869343   114A      0.874113  
     115A      0.877503   116A      0.889813   117A      0.892630  
     118A      0.898045   119A      0.904551   120A      0.907410  
     121A      0.907998   122A      0.912886   123A      0.920722  
     124A      0.926068   125A      0.935479   126A      0.940916  
     127A      0.953892   128A      0.956032   129A      0.963742  
     130A      0.975601   131A      0.976021   132A      1.009625  
     133A      1.021900   134A      1.049264   135A      1.055565  
     136A      1.118700   137A      1.123506   138A      1.138966  
     139A      1.157248   140A      1.165709   141A      1.173457  
     142A      1.193526   143A      1.223268   144A      1.240071  
     145A      1.252122   146A      1.270228   147A      1.277361  
     148A      1.299045   149A      1.301339   150A      1.333028  
     151A      1.340323   152A      1.360735   153A      1.367079  
     154A      1.378924   155A      1.397164   156A      1.424787  
     157A      1.428158   158A      1.456760   159A      1.474978  
     160A      1.475745   161A      1.487683   162A      1.499945  
     163A      1.522232   164A      1.558466   165A      1.594220  
     166A      1.599267   167A      1.614992   168A      1.647157  
     169A      1.662022   170A      1.677185   171A      1.699475  
     172A      1.722619   173A      1.730869   174A      1.748304  
     175A      1.760515   176A      1.779656   177A      1.783786  
     178A      1.789335   179A      1.815787   180A      1.820130  
     181A      1.831299   182A      1.843073   183A      1.846358  
     184A      1.872879   185A      1.875654   186A      1.883615  
     187A      1.887994   188A      1.901796   189A      1.907859  
     190A      1.914737   191A      1.922466   192A      1.930642  
     193A      1.939340   194A      1.942352   195A      1.956257  
     196A      1.959894   197A      1.968743   198A      1.973168  
     199A      1.976718   200A      1.994538   201A      2.001413  
     202A      2.014147   203A      2.023031   204A      2.035440  
     205A      2.042329   206A      2.046005   207A      2.053982  
     208A      2.067868   209A      2.077374   210A      2.082064  
     211A      2.094020   212A      2.113494   213A      2.120456  
     214A      2.133767   215A      2.156671   216A      2.181891  
     217A      2.192832   218A      2.212523   219A      2.233384  
     220A      2.236981   221A      2.238415   222A      2.250513  
     223A      2.263696   224A      2.268162   225A      2.290888  
     226A      2.294899   227A      2.303804   228A      2.338343  
     229A      2.356797   230A      2.365047   231A      2.377961  
     232A      2.389701   233A      2.400032   234A      2.430660  
     235A      2.449903   236A      2.458477   237A      2.464889  
     238A      2.473964   239A      2.486078   240A      2.506244  
     241A      2.544634   242A      2.557671   243A      2.571359  
     244A      2.600258   245A      2.613012   246A      2.641006  
     247A      2.648202   248A      2.686312   249A      2.725316  
     250A      2.753783   251A      2.769253   252A      2.778210  
     253A      2.780299   254A      2.787652   255A      2.801915  
     256A      2.811081   257A      2.848531   258A      2.860926  
     259A      2.876502   260A      2.917727   261A      2.922086  
     262A      2.947290   263A      2.991233   264A      3.002154  
     265A      3.014080   266A      3.055373   267A      3.083700  
     268A      3.146891   269A      3.236265   270A      3.262964  
     271A      3.293192   272A      3.388263   273A      3.478429  
     274A      3.627762   275A      3.756956   276A      3.998937  

    Final Occupation by Irrep:
              A 
    DOCC [    51 ]

  @DF-RHF Final Energy:  -576.44620458247675

   => Energetics <=

    Nuclear Repulsion Energy =            862.2189400929717067
    One-Electron Energy =               -2493.2396452445377690
    Two-Electron Energy =                1054.5745005690891958
    Total Energy =                       -576.4462045824768666

Computation Completed


Properties will be evaluated at   0.000000,   0.000000,   0.000000 [a0]

Properties computed using the SCF density matrix

  Nuclear Dipole Moment: [e a0]
     X:     7.2612      Y:     3.3599      Z:    -2.7255

  Electronic Dipole Moment: [e a0]
     X:    -7.3435      Y:    -3.0441      Z:     2.3663

  Dipole Moment: [e a0]
     X:    -0.0823      Y:     0.3158      Z:    -0.3592     Total:     0.4853

  Dipole Moment: [D]
     X:    -0.2092      Y:     0.8026      Z:    -0.9130     Total:     1.2335


*** tstop() called on skystd35.palmetto.clemson.edu at Tue Nov 23 21:57:06 2021
Module time:
	user time   =      24.07 seconds =       0.40 minutes
	system time =       0.56 seconds =       0.01 minutes
	total time  =         25 seconds =       0.42 minutes
Total time:
	user time   =      24.07 seconds =       0.40 minutes
	system time =       0.56 seconds =       0.01 minutes
	total time  =         25 seconds =       0.42 minutes

*** tstart() called on skystd35.palmetto.clemson.edu
*** at Tue Nov 23 21:57:06 2021


  //>>>>>>>>>>>>>>>>>>>>>>>>>>>>>>>>>>>//
  //               DFMP2               //
  //<<<<<<<<<<<<<<<<<<<<<<<<<<<<<<<<<<<//

   => Loading Basis Set <=

    Name: (CC-PVDZ AUX)
    Role: RIFIT
    Keyword: DF_BASIS_MP2
    atoms 1-12, 27            entry C          line   159 file /home/maxbuskirk/.conda/envs/psifour/share/psi4/basis/cc-pvdz-ri.gbs 
    atoms 13-14, 16-26, 28-30 entry H          line    19 file /home/maxbuskirk/.conda/envs/psifour/share/psi4/basis/cc-pvdz-ri.gbs 
    atoms 15                  entry O          line   235 file /home/maxbuskirk/.conda/envs/psifour/share/psi4/basis/cc-pvdz-ri.gbs 

	 --------------------------------------------------------
	                          DF-MP2                         
	      2nd-Order Density-Fitted Moller-Plesset Theory     
	              RMP2 Wavefunction,   1 Threads             
	                                                         
	        Rob Parrish, Justin Turney, Andy Simmonett,      
	           Ed Hohenstein, and C. David Sherrill          
	 --------------------------------------------------------

   => Auxiliary Basis Set <=

  Basis Set: (CC-PVDZ AUX)
    Blend: CC-PVDZ-RI
    Number of shells: 348
    Number of basis functions: 1008
    Number of Cartesian functions: 1164
    Spherical Harmonics?: true
    Max angular momentum: 3

	 --------------------------------------------------------
	                 NBF =   276, NAUX =  1008
	 --------------------------------------------------------
	   CLASS    FOCC     OCC    AOCC    AVIR     VIR    FVIR
	   PAIRS       0      51      51     225     225       0
	 --------------------------------------------------------


         ------------------------------------------------------------
                                     CPHF                           
                                  Rob Parrish                       
         ------------------------------------------------------------

  ==> Geometry <==

    Molecular point group: c1
    Full point group: C1

    Geometry (in Angstrom), charge = 0, multiplicity = 1:

       Center              X                  Y                   Z               Mass       
    ------------   -----------------  -----------------  -----------------  -----------------
         C            1.882703824103     0.668744759916    -2.032251349099    12.000000000000
         C            1.527573824103     0.557523759916    -0.564839349099    12.000000000000
         C            2.355673824103     1.439428759916     0.388695650901    12.000000000000
         C            3.619128824103     0.609333759916     0.690084650901    12.000000000000
         C            3.898526824103    -0.165469240084    -0.614202349099    12.000000000000
         C            2.511129824103    -0.430822240084    -1.198349349099    12.000000000000
         C            0.153997824103     0.144302759916    -0.150391349099    12.000000000000
         C           -0.015218175897    -0.764043240084     0.915705650901    12.000000000000
         C           -1.297485175897    -1.134810240084     1.347030650901    12.000000000000
         C           -2.434099175897    -0.601775240084     0.715073650901    12.000000000000
         C           -2.278079175897     0.303587759916    -0.346620349099    12.000000000000
         C           -0.992262175897     0.674915759916    -0.772846349099    12.000000000000
         H           -0.870858175897     1.386821759916    -1.595650349099     1.007825032230
         H           -3.158845175897     0.723246759916    -0.842500349099     1.007825032230
         O           -3.696625175897    -0.969298240084     1.133825650901    15.994914619570
         H           -1.411607175897    -1.844971240084     2.171890650901     1.007825032230
         H            0.870873824103    -1.189454240084     1.399630650901     1.007825032230
         H            2.187010824103    -1.457537240084    -1.392835349099     1.007825032230
         H            1.121833824103     0.369355759916    -2.758604349099     1.007825032230
         H            2.524019824103     1.500799759916    -2.342061349099     1.007825032230
         H            4.449362824103    -1.101660240084    -0.430740349099     1.007825032230
         H            4.507256824103     0.442187759916    -1.307619349099     1.007825032230
         H            3.384061824103    -0.115427240084     1.489786650901     1.007825032230
         H            4.473117824103     1.218755759916     1.031273650901     1.007825032230
         H            1.784204824103     1.680056759916     1.299028650901     1.007825032230
         H            2.619920824103     2.395294759916    -0.098780349099     1.007825032230
         C           -4.656427175897    -0.310352240084     0.356284650901    12.000000000000
         H           -5.652725175897    -0.600375240084     0.686735650901     1.007825032230
         H           -4.536370175897     0.766337759916     0.466953650901     1.007825032230
         H           -4.526775175897    -0.584451240084    -0.689650349099     1.007825032230

  Nuclear repulsion =  862.218940092971707
  Reference energy  = -576.446204582476753

  ==> Basis Set <==

  Basis Set: CC-PVDZ
    Blend: CC-PVDZ
    Number of shells: 132
    Number of basis functions: 276
    Number of Cartesian functions: 290
    Spherical Harmonics?: true
    Max angular momentum: 2

  ==> CGRSolver (by Rob Parrish) <==

   Number of roots    =         1
   Preconditioning    =    JACOBI
   Convergence cutoff =     1E-06
   Maximum iterations =       100

  ==> CPHFRHamiltonian (by Rob Parrish) <== 

  ==> DiskDFJK: Density-Fitted J/K Matrices <==

    J tasked:                  Yes
    K tasked:                  Yes
    wK tasked:                  No
    OpenMP threads:              1
    Integrals threads:           1
    Memory [MiB]:              375
    Algorithm:                Disk
    Integral Cache:           NONE
    Schwarz Cutoff:          1E-12
    Fitting Condition:       1E-10

   => Auxiliary Basis Set <=

  Basis Set: (CC-PVDZ AUX)
    Blend: CC-PVDZ-JKFIT
    Number of shells: 480
    Number of basis functions: 1348
    Number of Cartesian functions: 1534
    Spherical Harmonics?: true
    Max angular momentum: 3

  ==> CPHF Iterations <==

  => Iterations <=

             Iter  Converged  Remaining    Residual
  CGR           1          0          1   1.106E-01
  CGR           2          0          1   2.060E-02
  CGR           3          0          1   1.016E-02
  CGR           4          0          1   3.985E-03
  CGR           5          0          1   2.241E-03
  CGR           6          0          1   9.429E-04
  CGR           7          0          1   3.421E-04
  CGR           8          0          1   1.079E-04
  CGR           9          0          1   3.409E-05
  CGR          10          0          1   1.071E-05
  CGR          11          0          1   3.205E-06
  CGR          12          0          1   1.072E-06
  CGR          13          1          0   4.199E-07

    CGRSolver converged.

  ==> DFCorrGrad: Density-Fitted Correlated Gradients <==

    OpenMP threads:              1
    Integrals threads:           1
    Memory [GiB]:            0.366
    Schwarz Cutoff:          0E+00
    Fitting Condition:       1E-10

   => Auxiliary Basis Set <=

  Basis Set: (CC-PVDZ AUX)
    Blend: CC-PVDZ-JKFIT
    Number of shells: 480
    Number of basis functions: 1348
    Number of Cartesian functions: 1534
    Spherical Harmonics?: true
    Max angular momentum: 3

	-----------------------------------------------------------
	 ==================> DF-MP2 Energies <==================== 
	-----------------------------------------------------------
	 Reference Energy          =    -576.4462045824767529 [Eh]
	 Singles Energy            =      -0.0000000000000000 [Eh]
	 Same-Spin Energy          =      -0.5175217976667609 [Eh]
	 Opposite-Spin Energy      =      -1.4672077277193161 [Eh]
	 Correlation Energy        =      -1.9847295253860771 [Eh]
	 Total Energy              =    -578.4309341078628677 [Eh]
	-----------------------------------------------------------
	 ================> DF-SCS-MP2 Energies <================== 
	-----------------------------------------------------------
	 SCS Same-Spin Scale       =       0.3333333333333333 [-]
	 SCS Opposite-Spin Scale   =       1.2000000000000000 [-]
	 SCS Same-Spin Energy      =      -0.1725072658889203 [Eh]
	 SCS Opposite-Spin Energy  =      -1.7606492732631793 [Eh]
	 SCS Correlation Energy    =      -1.9331565391520995 [Eh]
	 SCS Total Energy          =    -578.3793611216289037 [Eh]
	-----------------------------------------------------------


  -Total Gradient:
     Atom            X                  Y                   Z
    ------   -----------------  -----------------  -----------------
       1       -0.000041039894    -0.000005444744     0.000075828577
       2        0.000292961874     0.000111994381    -0.000523277251
       3       -0.000161954369    -0.000009242410     0.000185678126
       4       -0.000054144408    -0.000117536711     0.000036047801
       5        0.000053181926     0.000007380315     0.000023879565
       6       -0.000130949610     0.000012299799    -0.000009736957
       7       -0.001262166096    -0.002815519089     0.003733313635
       8        0.005727339813    -0.000450483497     0.000584868900
       9       -0.003597342470     0.003397916655    -0.004023216773
      10        0.007797430682    -0.000524836404     0.000655396495
      11       -0.007387004727    -0.006840996613     0.007894275324
      12       -0.004149399628     0.003007268903    -0.003581576682
      13        0.000666355832     0.000107210764    -0.000135210433
      14       -0.012052296236    -0.000789890761     0.000868488701
      15       -0.018407574577     0.004923897418    -0.005921311598
      16        0.002534519869    -0.000379162303     0.000516607363
      17        0.000985527502     0.000387540528    -0.000470178261
      18        0.000019969513    -0.000017245953    -0.000019911325
      19        0.000017431263    -0.000024759746    -0.000056132839
      20       -0.000052931462    -0.000001078581     0.000010788339
      21       -0.000043766962    -0.000005142177     0.000003290891
      22       -0.000053530327    -0.000043900458    -0.000001247895
      23        0.000013133921     0.000023112793    -0.000013477385
      24       -0.000049565358     0.000036987131    -0.000016781389
      25        0.000025662066     0.000037341357     0.000059885391
      26       -0.000102000022    -0.000088227846    -0.000016288546
      27        0.015145686896     0.004108364462    -0.004710737232
      28        0.003715682066     0.004742758505    -0.005520382757
      29        0.005297950180    -0.009766644294     0.000604191194
      30        0.005252832750     0.000976038566     0.009766927021


*** tstop() called on skystd35.palmetto.clemson.edu at Tue Nov 23 21:58:42 2021
Module time:
	user time   =      91.59 seconds =       1.53 minutes
	system time =       4.42 seconds =       0.07 minutes
	total time  =         96 seconds =       1.60 minutes
Total time:
	user time   =     115.66 seconds =       1.93 minutes
	system time =       4.98 seconds =       0.08 minutes
	total time  =        121 seconds =       2.02 minutes

			-----------------------------------------
			 OPTKING 2.0: for geometry optimizations 
			  - R.A. King,  Bethel University        
			-----------------------------------------

	Internal coordinates to be generated automatically.
	Detected frag 1 with atoms:  1 2 3 4 5 6 7 8 9 10 11 12 13 14 15 16 17 18 19 20
	 21 22 23 24 25 26 27 28 29 30
	---Fragment 1 Bond Connectivity---
	 1 : 2 6 19 20
	 2 : 1 3 6 7
	 3 : 2 4 25 26
	 4 : 3 5 23 24
	 5 : 4 6 21 22
	 6 : 1 2 5 18
	 7 : 2 8 12
	 8 : 7 9 17
	 9 : 8 10 16
	 10 : 9 11 15
	 11 : 10 12 14
	 12 : 7 11 13
	 13 : 12
	 14 : 11
	 15 : 10 27
	 16 : 9
	 17 : 8
	 18 : 6
	 19 : 1
	 20 : 1
	 21 : 5
	 22 : 5
	 23 : 4
	 24 : 4
	 25 : 3
	 26 : 3
	 27 : 15 28 29 30
	 28 : 27
	 29 : 27
	 30 : 27

	---Fragment 1 Geometry and Gradient---
	 C           3.5577946029        1.2637444441       -3.8403984679
	 C           2.8866961640        1.0535672147       -1.0673916747
	 C           4.4515783685        2.7201261333        0.7345283264
	 C           6.8391622903        1.1514739252        1.3040709936
	 C           7.3671479903       -0.3126915459       -1.1606742254
	 C           4.7453476330       -0.8141360425       -2.2645520724
	 C           0.2910137115        0.2726926954       -0.2841984614
	 C          -0.0287581846       -1.4438324718        1.7304328917
	 C          -2.4518916343       -2.1444805581        2.5455190128
	 C          -4.5997808046       -1.1371903928        1.3512933597
	 C          -4.3049457346        0.5736977213       -0.6550175293
	 C          -1.8751037571        1.2754059440       -1.4604679369
	 H          -1.6456834466        2.6207133111       -3.0153421518
	 H          -5.9693522552        1.3667382974       -1.5920949204
	 O          -6.9856091709       -1.8317082076        2.1426199542
	 H          -2.6675509592       -3.4864903531        4.1042785046
	 H           1.6457130174       -2.2477427525        2.6449186070
	 H           4.1328514910       -2.7543462014       -2.6320773477
	 H           2.1199586858        0.6979812291       -5.2130067083
	 H           4.7697062028        2.8361005154       -4.4258545188
	 H           8.4080771703       -2.0818361371       -0.8139812910
	 H           8.5174809747        0.8356137623       -2.4710424461
	 H           6.3949500392       -0.2181258712        2.8152887556
	 H           8.4529676145        2.3031146001        1.9488247606
	 H           3.3716584693        3.1748471515        2.4548083793
	 H           4.9509328279        4.5264510860       -0.1866678064
	 C          -8.7993720856       -0.5864807362        0.6732804129
	 H         -10.6821024449       -1.1345447763        1.2977423008
	 H          -8.5724972361        1.4481684858        0.8824145135
	 H          -8.5543653140       -1.1044527774       -1.3032502821
	            -0.0000410399       -0.0000054447        0.0000758286
	             0.0002929619        0.0001119944       -0.0005232773
	            -0.0001619544       -0.0000092424        0.0001856781
	            -0.0000541444       -0.0001175367        0.0000360478
	             0.0000531819        0.0000073803        0.0000238796
	            -0.0001309496        0.0000122998       -0.0000097370
	            -0.0012621661       -0.0028155191        0.0037333136
	             0.0057273398       -0.0004504835        0.0005848689
	            -0.0035973425        0.0033979167       -0.0040232168
	             0.0077974307       -0.0005248364        0.0006553965
	            -0.0073870047       -0.0068409966        0.0078942753
	            -0.0041493996        0.0030072689       -0.0035815767
	             0.0006663558        0.0001072108       -0.0001352104
	            -0.0120522962       -0.0007898908        0.0008684887
	            -0.0184075746        0.0049238974       -0.0059213116
	             0.0025345199       -0.0003791623        0.0005166074
	             0.0009855275        0.0003875405       -0.0004701783
	             0.0000199695       -0.0000172460       -0.0000199113
	             0.0000174313       -0.0000247597       -0.0000561328
	            -0.0000529315       -0.0000010786        0.0000107883
	            -0.0000437670       -0.0000051422        0.0000032909
	            -0.0000535303       -0.0000439005       -0.0000012479
	             0.0000131339        0.0000231128       -0.0000134774
	            -0.0000495654        0.0000369871       -0.0000167814
	             0.0000256621        0.0000373414        0.0000598854
	            -0.0001020000       -0.0000882278       -0.0000162885
	             0.0151456869        0.0041083645       -0.0047107372
	             0.0037156821        0.0047427585       -0.0055203828
	             0.0052979502       -0.0097666443        0.0006041912
	             0.0052528327        0.0009760386        0.0097669270

	Previous optimization step data not found.  Starting new optimization.

	---Fragment 1 Intrafragment Coordinates---
	 - Coordinate -           - BOHR/RAD -       - ANG/DEG -
	 R(1,2)           =         2.860789	       1.513864
	 R(1,6)           =         2.865512	       1.516364
	 R(1,19)          =         2.066764	       1.093684
	 R(1,20)          =         2.069732	       1.095255
	 R(2,3)           =         2.910875	       1.540368
	 R(2,6)           =         2.894148	       1.531517
	 R(2,7)           =         2.821476	       1.493061
	 R(3,4)           =         2.913006	       1.541497
	 R(3,25)          =         2.081433	       1.101447
	 R(3,26)          =         2.088245	       1.105052
	 R(4,5)           =         2.915050	       1.542578
	 R(4,23)          =         2.087321	       1.104562
	 R(4,24)          =         2.084790	       1.103224
	 R(5,6)           =         2.888569	       1.528565
	 R(5,21)          =         2.081731	       1.101604
	 R(5,22)          =         2.087806	       1.104820
	 R(6,18)          =         2.067521	       1.094085
	 R(7,8)           =         2.665981	       1.410776
	 R(7,12)          =         2.661035	       1.408159
	 R(8,9)           =         2.650820	       1.402754
	 R(8,17)          =         2.070365	       1.095590
	 R(9,10)          =         2.655981	       1.405485
	 R(9,16)          =         2.068147	       1.094416
	 R(10,11)         =         2.653177	       1.404001
	 R(10,15)         =         2.607821	       1.379999
	 R(11,12)         =         2.654294	       1.404592
	 R(11,14)         =         2.068158	       1.094422
	 R(12,13)         =         2.068845	       1.094786
	 R(15,27)         =         2.645616	       1.400000
	 R(27,28)         =         2.057912	       1.089000
	 R(27,29)         =         2.057913	       1.089001
	 R(27,30)         =         2.057911	       1.089000
	 B(1,2,3)         =         2.017351	     115.585685
	 B(1,2,6)         =         1.042344	      59.721936
	 B(1,2,7)         =         2.100422	     120.345328
	 B(1,6,2)         =         1.039528	      59.560564
	 B(1,6,5)         =         2.049282	     117.415187
	 B(1,6,18)        =         2.048738	     117.384025
	 B(2,1,6)         =         1.059720	      60.717500
	 B(2,1,19)        =         2.049292	     117.415782
	 B(2,1,20)        =         2.057096	     117.862942
	 B(2,3,4)         =         1.826944	     104.676198
	 B(2,3,25)        =         1.936680	     110.963570
	 B(2,3,26)        =         1.929130	     110.530986
	 B(2,6,5)         =         1.888930	     108.227717
	 B(2,6,18)        =         2.081600	     119.266883
	 B(2,7,8)         =         2.092441	     119.888038
	 B(2,7,12)        =         2.119852	     121.458574
	 B(3,2,6)         =         1.854886	     106.277162
	 B(3,2,7)         =         2.072817	     118.763664
	 B(3,4,5)         =         1.827213	     104.691617
	 B(3,4,23)        =         1.897014	     108.690913
	 B(3,4,24)        =         1.979545	     113.419580
	 B(4,3,25)        =         1.962002	     112.414409
	 B(4,3,26)        =         1.934839	     110.858094
	 B(4,5,6)         =         1.819262	     104.236043
	 B(4,5,21)        =         1.956931	     112.123910
	 B(4,5,22)        =         1.932871	     110.745342
	 B(5,4,23)        =         1.897723	     108.731493
	 B(5,4,24)        =         1.980944	     113.499740
	 B(5,6,18)        =         2.094079	     119.981893
	 B(6,1,19)        =         2.043221	     117.067911
	 B(6,1,20)        =         2.053042	     117.630648
	 B(6,2,7)         =         2.125903	     121.805252
	 B(6,5,21)        =         1.949769	     111.713517
	 B(6,5,22)        =         1.934481	     110.837597
	 B(7,8,9)         =         2.108523	     120.809467
	 B(7,8,17)        =         2.079202	     119.129487
	 B(7,12,11)       =         2.107639	     120.758819
	 B(7,12,13)       =         2.079425	     119.142292
	 B(8,7,12)        =         2.070330	     118.621159
	 B(8,9,10)        =         2.095249	     120.048921
	 B(8,9,16)        =         2.092759	     119.906259
	 B(9,8,17)        =         2.095393	     120.057181
	 B(9,10,11)       =         2.088291	     119.650243
	 B(9,10,15)       =         2.097186	     120.159930
	 B(10,9,16)       =         2.095155	     120.043517
	 B(10,11,12)      =         2.096327	     120.110679
	 B(10,11,14)      =         2.094932	     120.030779
	 B(10,15,27)      =         1.910634	     109.471241
	 B(11,10,15)      =         2.097704	     120.189603
	 B(11,12,13)      =         2.096116	     120.098614
	 B(12,11,14)      =         2.091924	     119.858405
	 B(15,27,28)      =         1.910633	     109.471228
	 B(15,27,29)      =         1.910633	     109.471205
	 B(15,27,30)      =         1.910634	     109.471257
	 B(19,1,20)       =         2.012474	     115.306264
	 B(21,5,22)       =         1.871758	     107.243849
	 B(23,4,24)       =         1.878938	     107.655190
	 B(25,3,26)       =         1.875161	     107.438837
	 B(28,27,29)      =         1.910633	     109.471193
	 B(28,27,30)      =         1.910634	     109.471245
	 B(29,27,30)      =         1.910633	     109.471195
	 D(1,2,3,4)       =        -1.487484	     -85.226572
	 D(1,2,3,25)      =         2.675187	     153.276932
	 D(1,2,3,26)      =         0.596675	      34.186976
	 D(1,2,6,5)       =         1.948453	     111.638142
	 D(1,2,6,18)      =        -1.856921	    -106.393716
	 D(1,2,7,8)       =         2.408854	     138.017151
	 D(1,2,7,12)      =        -0.769280	     -44.076485
	 D(1,6,2,3)       =        -1.928884	    -110.516925
	 D(1,6,2,7)       =         1.903190	     109.044759
	 D(1,6,5,4)       =         1.468895	      84.161501
	 D(1,6,5,21)      =        -2.697521	    -154.556588
	 D(1,6,5,22)      =        -0.611214	     -35.019998
	 D(2,1,6,5)       =        -1.674893	     -95.964306
	 D(2,1,6,18)      =         1.911561	     109.524357
	 D(2,3,4,5)       =         0.589407	      33.770540
	 D(2,3,4,23)      =        -1.436065	     -82.280465
	 D(2,3,4,24)      =         2.757968	     158.019943
	 D(2,6,1,19)      =        -1.882068	    -107.834530
	 D(2,6,1,20)      =         1.887309	     108.134828
	 D(2,6,5,4)       =         0.342659	      19.632931
	 D(2,6,5,21)      =         2.459428	     140.914841
	 D(2,6,5,22)      =        -1.737450	     -99.548568
	 D(2,7,8,9)       =         3.108309	     178.092997
	 D(2,7,8,17)      =        -0.045760	      -2.621861
	 D(2,7,12,11)     =        -3.110817	    -178.236678
	 D(2,7,12,13)     =         0.027453	       1.572949
	 D(3,2,1,6)       =         1.651177	      94.605460
	 D(3,2,1,19)      =        -2.759824	    -158.126276
	 D(3,2,1,20)      =        -0.229547	     -13.152074
	 D(3,2,6,5)       =         0.019569	       1.121217
	 D(3,2,6,18)      =         2.497380	     143.089359
	 D(3,2,7,8)       =        -1.201325	     -68.830845
	 D(3,2,7,12)      =         1.903727	     109.075519
	 D(3,4,5,6)       =        -0.573602	     -32.864999
	 D(3,4,5,21)      =        -2.685602	    -153.873654
	 D(3,4,5,22)      =         1.507600	      86.379143
	 D(4,3,2,6)       =        -0.375127	     -21.493186
	 D(4,3,2,7)       =         2.100956	     120.375901
	 D(4,5,6,18)      =        -2.129570	    -122.015351
	 D(5,4,3,25)      =         2.693170	     154.307289
	 D(5,4,3,26)      =        -1.490910	     -85.422842
	 D(5,6,1,19)      =         2.726225	     156.201164
	 D(5,6,1,20)      =         0.212416	      12.170522
	 D(5,6,2,7)       =        -2.431542	    -139.317099
	 D(6,1,2,7)       =        -1.944837	    -111.430967
	 D(6,2,1,19)      =         1.872184	     107.268264
	 D(6,2,1,20)      =        -1.880724	    -107.757534
	 D(6,2,3,25)      =        -2.495641	    -142.989682
	 D(6,2,3,26)      =         1.709033	      97.920361
	 D(6,2,7,8)       =         1.168456	      66.947624
	 D(6,2,7,12)      =        -2.009677	    -115.146011
	 D(6,5,4,23)      =         1.451379	      83.157872
	 D(6,5,4,24)      =        -2.741271	    -157.063259
	 D(7,2,1,19)      =        -0.072653	      -4.162703
	 D(7,2,1,20)      =         2.457624	     140.811498
	 D(7,2,3,25)      =        -0.019558	      -1.120595
	 D(7,2,3,26)      =        -2.098070	    -120.210552
	 D(7,2,6,18)      =         0.046269	       2.651043
	 D(7,8,9,10)      =         0.001304	       0.074700
	 D(7,8,9,16)      =         3.135653	     179.659684
	 D(7,12,11,10)    =         0.004887	       0.280010
	 D(7,12,11,14)    =        -3.139052	    -179.854428
	 D(8,7,12,11)     =        -0.005315	      -0.304531
	 D(8,7,12,13)     =         3.132955	     179.505096
	 D(8,9,10,11)     =        -0.001796	      -0.102888
	 D(8,9,10,15)     =         3.136800	     179.725380
	 D(9,8,7,12)      =         0.002225	       0.127485
	 D(9,10,11,12)    =        -0.001268	      -0.072650
	 D(9,10,11,14)    =        -3.140510	    -179.937978
	 D(9,10,15,27)    =         3.141593	     180.000000
	 D(10,9,8,17)     =        -3.127697	    -179.203838
	 D(10,11,12,13)   =        -3.133351	    -179.527802
	 D(10,15,27,28)   =         3.141593	     180.000000
	 D(10,15,27,29)   =        -1.047197	     -59.999975
	 D(10,15,27,30)   =         1.047198	      60.000007
	 D(11,10,9,16)    =        -3.136135	    -179.687298
	 D(11,10,15,27)   =        -0.003013	      -0.172648
	 D(12,7,8,17)     =         3.131341	     179.412627
	 D(12,11,10,15)   =        -3.139862	    -179.900866
	 D(13,12,11,14)   =         0.005895	       0.337760
	 D(14,11,10,15)   =         0.004081	       0.233806
	 D(15,10,9,16)    =         0.002460	       0.140969
	 D(16,9,8,17)     =         0.006652	       0.381147
	 D(18,6,1,19)     =         0.029493	       1.689827
	 D(18,6,1,20)     =        -2.484316	    -142.340815
	 D(18,6,5,21)     =        -0.012801	      -0.733441
	 D(18,6,5,22)     =         2.073506	     118.803150
	 D(21,5,4,23)     =        -0.660621	     -37.850783
	 D(21,5,4,24)     =         1.429915	      81.928087
	 D(22,5,4,23)     =        -2.750604	    -157.597986
	 D(22,5,4,24)     =        -0.660068	     -37.819116
	 D(23,4,3,25)     =         0.667698	      38.256283
	 D(23,4,3,26)     =         2.766803	     158.526152
	 D(24,4,3,25)     =        -1.421454	     -81.443309
	 D(24,4,3,26)     =         0.677651	      38.826560

	Current energy   :      -578.4309341079

	Generating empirical Hessian (Schlegel '84) for each fragment.
	Taking RFO optimization step.
	Going to follow RFO solution 1.
	Using RFO vector 1.
	Norm of target step-size    0.38942
	Projected energy change by RFO approximation:        -0.0376761786

	Back-transformation to cartesian coordinates...
	Successfully converged to displaced geometry.

	--- Internal Coordinate Step in ANG or DEG, aJ/ANG or AJ/DEG ---
	 ---------------------------------------------------------------------------
	   Coordinate                Previous        Force       Change         New 
	   ----------                --------       ------       ------       ------
	    1 R(1,2)          =      1.513864     0.000203     0.000416     1.514280
	    2 R(1,6)          =      1.516364     0.000472     0.001727     1.518091
	    3 R(1,19)         =      1.093684    -0.000263    -0.000044     1.093641
	    4 R(1,20)         =      1.095255     0.000287     0.000048     1.095303
	    5 R(2,3)          =      1.540368     0.000894    -0.000312     1.540056
	    6 R(2,6)          =      1.531517     0.000707    -0.001362     1.530155
	    7 R(2,7)          =      1.493061     0.001620     0.000278     1.493338
	    8 R(3,4)          =      1.541497     0.000156    -0.000452     1.541044
	    9 R(3,25)         =      1.101447    -0.000365    -0.000062     1.101385
	   10 R(3,26)         =      1.105052     0.000771     0.000132     1.105184
	   11 R(4,5)          =      1.542578    -0.000447    -0.000375     1.542203
	   12 R(4,23)         =      1.104562     0.000228     0.000039     1.104602
	   13 R(4,24)         =      1.103224     0.000191     0.000032     1.103256
	   14 R(5,6)          =      1.528565     0.000461     0.000851     1.529416
	   15 R(5,21)         =      1.101604     0.000140     0.000024     1.101628
	   16 R(5,22)         =      1.104820     0.000435     0.000075     1.104894
	   17 R(6,18)         =      1.094085    -0.000114    -0.000019     1.094066
	   18 R(7,8)          =      1.410776    -0.011395    -0.001826     1.408950
	   19 R(7,12)         =      1.408159    -0.041324    -0.006151     1.402009
	   20 R(8,9)          =      1.402754    -0.032010    -0.003774     1.398979
	   21 R(8,17)         =      1.095590    -0.003616    -0.000603     1.094987
	   22 R(9,10)         =      1.405485     0.014065     0.002540     1.408024
	   23 R(9,16)         =      1.094416    -0.003057    -0.000508     1.093908
	   24 R(10,11)        =      1.404001     0.126490     0.016774     1.420775
	   25 R(10,15)        =      1.379999     0.108336     0.013019     1.393019
	   26 R(11,12)        =      1.404592     0.018527     0.002040     1.406632
	   27 R(11,14)        =      1.094422    -0.074173    -0.012326     1.082096
	   28 R(12,13)        =      1.094786    -0.002020    -0.000336     1.094449
	   29 R(15,27)        =      1.400000     0.166533     0.021408     1.421408
	   30 R(27,28)        =      1.089000     0.052214     0.008540     1.097539
	   31 R(27,29)        =      1.089001     0.074237     0.012141     1.101142
	   32 R(27,30)        =      1.089000     0.074157     0.012128     1.101128
	   33 B(1,2,3)        =    115.585685    -0.000011    -0.236068   115.349617
	   34 B(1,2,6)        =     59.721936     0.000000     0.096068    59.818004
	   35 B(1,2,7)        =    120.345328    -0.000005    -0.043271   120.302057
	   36 B(1,6,2)        =     59.560564    -0.000001     0.011066    59.571630
	   37 B(1,6,5)        =    117.415187    -0.000002     0.065164   117.480351
	   38 B(1,6,18)       =    117.384025     0.000000    -0.061063   117.322961
	   39 B(2,1,6)        =     60.717500     0.000001    -0.107135    60.610365
	   40 B(2,1,19)       =    117.415782    -0.000003    -0.109366   117.306416
	   41 B(2,1,20)       =    117.862942     0.000002     0.201411   118.064352
	   42 B(2,3,4)        =    104.676198     0.000006     0.267997   104.944195
	   43 B(2,3,25)       =    110.963570    -0.000007    -0.286339   110.677231
	   44 B(2,3,26)       =    110.530986     0.000005    -0.173829   110.357156
	   45 B(2,6,5)        =    108.227717     0.000004     0.262181   108.489899
	   46 B(2,6,18)       =    119.266883    -0.000003    -0.218860   119.048023
	   47 B(2,7,8)        =    119.888038     0.000125     0.644900   120.532938
	   48 B(2,7,12)       =    121.458574     0.000138     0.251630   121.710204
	   49 B(3,2,6)        =    106.277162    -0.000010    -0.328020   105.949142
	   50 B(3,2,7)        =    118.763664     0.000016     0.268063   119.031727
	   51 B(3,4,5)        =    104.691617    -0.000003    -0.139910   104.551707
	   52 B(3,4,23)       =    108.690913     0.000000     0.062048   108.752961
	   53 B(3,4,24)       =    113.419580     0.000004     0.227462   113.647042
	   54 B(4,3,25)       =    112.414409     0.000000    -0.042073   112.372336
	   55 B(4,3,26)       =    110.858094    -0.000006     0.034233   110.892327
	   56 B(4,5,6)        =    104.236043     0.000002    -0.118852   104.117191
	   57 B(4,5,21)       =    112.123910     0.000000    -0.200099   111.923812
	   58 B(4,5,22)       =    110.745342    -0.000003     0.068522   110.813864
	   59 B(5,4,23)       =    108.731493     0.000001     0.084013   108.815506
	   60 B(5,4,24)       =    113.499740    -0.000001    -0.220254   113.279486
	   61 B(5,6,18)       =    119.981893     0.000001    -0.028502   119.953392
	   62 B(6,1,19)       =    117.067911     0.000001     0.117281   117.185193
	   63 B(6,1,20)       =    117.630648    -0.000003     0.000397   117.631046
	   64 B(6,2,7)        =    121.805252    -0.000001     0.111552   121.916804
	   65 B(6,5,21)       =    111.713517    -0.000000     0.236347   111.949864
	   66 B(6,5,22)       =    110.837597     0.000002     0.037500   110.875097
	   67 B(7,8,9)        =    120.809467     0.000255     0.431865   121.241332
	   68 B(7,8,17)       =    119.129487    -0.000043     0.100106   119.229593
	   69 B(7,12,11)      =    120.758819     0.000327     0.917477   121.676296
	   70 B(7,12,13)      =    119.142292    -0.000113    -0.263208   118.879085
	   71 B(8,7,12)       =    118.621159    -0.000264    -0.898077   117.723082
	   72 B(8,9,10)       =    120.048921     0.000458     1.219302   121.268223
	   73 B(8,9,16)       =    119.906259    -0.000025     0.136054   120.042313
	   74 B(9,8,17)       =    120.057181    -0.000212    -0.531781   119.525400
	   75 B(9,10,11)      =    119.650243    -0.000792    -1.891622   117.758621
	   76 B(9,10,15)      =    120.159930    -0.003000    -7.549083   112.610847
	   77 B(10,9,16)      =    120.043517    -0.000432    -1.355367   118.688150
	   78 B(10,11,12)     =    120.110679     0.000017     0.221042   120.331721
	   79 B(10,11,14)     =    120.030779     0.000629     2.252431   122.283210
	   80 B(10,15,27)     =    109.471241     0.006288    15.691017   125.162258
	   81 B(11,10,15)     =    120.189603     0.003792     9.440717   129.630320
	   82 B(11,12,13)     =    120.098614    -0.000214    -0.654287   119.444327
	   83 B(12,11,14)     =    119.858405    -0.000645    -2.473483   117.384922
	   84 B(15,27,28)     =    109.471228    -0.000997    -3.227555   106.243672
	   85 B(15,27,29)     =    109.471205     0.000758     3.636252   113.107457
	   86 B(15,27,30)     =    109.471257     0.000759     3.712567   113.183825
	   87 B(19,1,20)      =    115.306264     0.000001    -0.087723   115.218540
	   88 B(21,5,22)      =    107.243849    -0.000001    -0.020792   107.223057
	   89 B(23,4,24)      =    107.655190    -0.000001    -0.006484   107.648706
	   90 B(25,3,26)      =    107.438837     0.000001     0.185732   107.624569
	   91 B(28,27,29)     =    109.471193    -0.000189    -0.589924   108.881269
	   92 B(28,27,30)     =    109.471245    -0.000190    -0.849807   108.621438
	   93 B(29,27,30)     =    109.471195    -0.000142    -2.783099   106.688096
	   94 D(1,2,3,4)      =    -85.226572     0.000000    -0.077354   -85.303926
	   95 D(1,2,3,25)     =    153.276932     0.000000    -0.034323   153.242609
	   96 D(1,2,3,26)     =     34.186976     0.000000     0.028581    34.215557
	   97 D(1,2,6,5)      =    111.638142    -0.000001    -0.053823   111.584319
	   98 D(1,2,6,18)     =   -106.393716    -0.000000    -0.027516  -106.421232
	   99 D(1,2,7,8)      =    138.017151     0.000000     0.081670   138.098821
	  100 D(1,2,7,12)     =    -44.076485    -0.000002     0.013030   -44.063454
	  101 D(1,6,2,3)      =   -110.516925     0.000002     0.096683  -110.420242
	  102 D(1,6,2,7)      =    109.044759    -0.000001    -0.054838   108.989921
	  103 D(1,6,5,4)      =     84.161501    -0.000000     0.137453    84.298955
	  104 D(1,6,5,21)     =   -154.556588     0.000000    -0.050200  -154.606788
	  105 D(1,6,5,22)     =    -35.019998     0.000000     0.106266   -34.913732
	  106 D(2,1,6,5)      =    -95.964306    -0.000001    -0.297278   -96.261584
	  107 D(2,1,6,18)     =    109.524357    -0.000001    -0.233925   109.290432
	  108 D(2,3,4,5)      =     33.770540     0.000001     0.150879    33.921419
	  109 D(2,3,4,23)     =    -82.280465     0.000001     0.096583   -82.183882
	  110 D(2,3,4,24)     =    158.019943     0.000001    -0.083929   157.936014
	  111 D(2,6,1,19)     =   -107.834530     0.000001     0.219800  -107.614730
	  112 D(2,6,1,20)     =    108.134828     0.000001     0.203137   108.337965
	  113 D(2,6,5,4)      =     19.632931    -0.000000     0.007613    19.640544
	  114 D(2,6,5,21)     =    140.914841     0.000000    -0.180040   140.734802
	  115 D(2,6,5,22)     =    -99.548568     0.000000    -0.023574   -99.572143
	  116 D(2,7,8,9)      =    178.092997    -0.000000    -0.046036   178.046961
	  117 D(2,7,8,17)     =     -2.621861    -0.000000    -0.031917    -2.653779
	  118 D(2,7,12,11)    =   -178.236678     0.000000     0.034054  -178.202624
	  119 D(2,7,12,13)    =      1.572949     0.000000     0.026518     1.599466
	  120 D(3,2,1,6)      =     94.605460    -0.000002    -0.234573    94.370887
	  121 D(3,2,1,19)     =   -158.126276    -0.000001    -0.085896  -158.212172
	  122 D(3,2,1,20)     =    -13.152074    -0.000001    -0.109861   -13.261935
	  123 D(3,2,6,5)      =      1.121217     0.000001     0.042860     1.164076
	  124 D(3,2,6,18)     =    143.089359     0.000001     0.069167   143.158526
	  125 D(3,2,7,8)      =    -68.830845     0.000000    -0.006163   -68.837008
	  126 D(3,2,7,12)     =    109.075519    -0.000002    -0.074802   109.000717
	  127 D(3,4,5,6)      =    -32.864999     0.000000     0.029003   -32.835996
	  128 D(3,4,5,21)     =   -153.873654    -0.000000    -0.073991  -153.947645
	  129 D(3,4,5,22)     =     86.379143     0.000000     0.039207    86.418350
	  130 D(4,3,2,6)      =    -21.493186    -0.000001    -0.118587   -21.611773
	  131 D(4,3,2,7)      =    120.375901     0.000000    -0.036078   120.339823
	  132 D(4,5,6,18)     =   -122.015351    -0.000001     0.064656  -121.950695
	  133 D(5,4,3,25)     =    154.307289    -0.000000    -0.049776   154.257513
	  134 D(5,4,3,26)     =    -85.422842    -0.000001     0.183117   -85.239726
	  135 D(5,6,1,19)     =    156.201164    -0.000000    -0.077478   156.123686
	  136 D(5,6,1,20)     =     12.170522    -0.000000    -0.094141    12.076380
	  137 D(5,6,2,7)      =   -139.317099    -0.000002    -0.108661  -139.425760
	  138 D(6,1,2,7)      =   -111.430967    -0.000000    -0.192008  -111.622976
	  139 D(6,2,1,19)     =    107.268264     0.000001     0.148677   107.416941
	  140 D(6,2,1,20)     =   -107.757534     0.000001     0.124712  -107.632822
	  141 D(6,2,3,25)     =   -142.989682    -0.000001    -0.075555  -143.065237
	  142 D(6,2,3,26)     =     97.920361    -0.000001    -0.012651    97.907710
	  143 D(6,2,7,8)      =     66.947624     0.000001    -0.063466    66.884159
	  144 D(6,2,7,12)     =   -115.146011    -0.000001    -0.132105  -115.278117
	  145 D(6,5,4,23)     =     83.157872    -0.000000     0.067978    83.225849
	  146 D(6,5,4,24)     =   -157.063259    -0.000000    -0.022683  -157.085942
	  147 D(7,2,1,19)     =     -4.162703     0.000001    -0.043332    -4.206035
	  148 D(7,2,1,20)     =    140.811498     0.000001    -0.067296   140.744202
	  149 D(7,2,3,25)     =     -1.120595     0.000000     0.006954    -1.113641
	  150 D(7,2,3,26)     =   -120.210552     0.000000     0.069858  -120.140693
	  151 D(7,2,6,18)     =      2.651043    -0.000002    -0.082354     2.568689
	  152 D(7,8,9,10)     =      0.074700     0.000000     0.002406     0.077105
	  153 D(7,8,9,16)     =    179.659684     0.000000    -0.004935   179.654749
	  154 D(7,12,11,10)   =      0.280010     0.000000     0.008072     0.288082
	  155 D(7,12,11,14)   =   -179.854428     0.000001     0.006575  -179.847853
	  156 D(8,7,12,11)    =     -0.304531     0.000000    -0.002038    -0.306569
	  157 D(8,7,12,13)    =    179.505096     0.000000    -0.009574   179.495522
	  158 D(8,9,10,11)    =     -0.102888     0.000000     0.002592    -0.100296
	  159 D(8,9,10,15)    =    179.725380     0.000002     0.023007   179.748386
	  160 D(9,8,7,12)     =      0.127485    -0.000001    -0.002532     0.124953
	  161 D(9,10,11,12)   =     -0.072650    -0.000000    -0.005374    -0.078024
	  162 D(9,10,11,14)   =   -179.937978    -0.000000     0.002726  -179.935252
	  163 D(9,10,15,27)   =    180.000000    -0.000000    -0.013978   179.986022
	  164 D(10,9,8,17)    =   -179.203838    -0.000000    -0.016278  -179.220116
	  165 D(10,11,12,13)  =   -179.527802     0.000000     0.014886  -179.512916
	  166 D(10,15,27,28)  =    180.000000     0.000000    -0.058091   179.941909
	  167 D(10,15,27,29)  =    -59.999975    -0.000086    -0.666096   -60.666072
	  168 D(10,15,27,30)  =     60.000007     0.000087     0.825540    60.825547
	  169 D(11,10,9,16)   =   -179.687298    -0.000000     0.003779  -179.683519
	  170 D(11,10,15,27)  =     -0.172648    -0.000000    -0.015192    -0.187839
	  171 D(12,7,8,17)    =    179.412627    -0.000000     0.011587   179.424214
	  172 D(12,11,10,15)  =   -179.900866     0.000001     0.004212  -179.896653
	  173 D(13,12,11,14)  =      0.337760     0.000000     0.013389     0.351148
	  174 D(14,11,10,15)  =      0.233806     0.000001     0.012313     0.246118
	  175 D(15,10,9,16)   =      0.140969     0.000001     0.024194     0.165163
	  176 D(16,9,8,17)    =      0.381147    -0.000000    -0.023619     0.357528
	  177 D(18,6,1,19)    =      1.689827     0.000000    -0.014125     1.675702
	  178 D(18,6,1,20)    =   -142.340815    -0.000000    -0.030788  -142.371603
	  179 D(18,6,5,21)    =     -0.733441    -0.000000    -0.122997    -0.856438
	  180 D(18,6,5,22)    =    118.803150    -0.000000     0.033468   118.836618
	  181 D(21,5,4,23)    =    -37.850783    -0.000000    -0.035017   -37.885799
	  182 D(21,5,4,24)    =     81.928087    -0.000001    -0.125677    81.802410
	  183 D(22,5,4,23)    =   -157.597986     0.000000     0.078181  -157.519804
	  184 D(22,5,4,24)    =    -37.819116    -0.000000    -0.012479   -37.831596
	  185 D(23,4,3,25)    =     38.256283     0.000000    -0.104072    38.152212
	  186 D(23,4,3,26)    =    158.526152    -0.000000     0.128821   158.654974
	  187 D(24,4,3,25)    =    -81.443309    -0.000000    -0.284584   -81.727893
	  188 D(24,4,3,26)    =     38.826560    -0.000001    -0.051691    38.774869
	 ---------------------------------------------------------------------------
	Successfully symmetrized geometry.

  ==> Convergence Check <==

  Measures of convergence in internal coordinates in au.
  Criteria marked as inactive (o), active & met (*), and active & unmet ( ).
  --------------------------------------------------------------------------------------------- ~
   Step     Total Energy     Delta E     MAX Force     RMS Force      MAX Disp      RMS Disp    ~
  --------------------------------------------------------------------------------------------- ~
    Convergence Criteria    1.00e-06 *    3.00e-04 *             o    1.20e-03 *             o  ~
  --------------------------------------------------------------------------------------------- ~
      1    -578.43093411   -5.78e+02      8.26e-02      8.26e-03 o    2.74e-01      2.79e-02 o  ~
  ---------------------------------------------------------------------------------------------

	Writing optimization data to binary file.
	Structure for next step:
	Cartesian Geometry (in Angstrom)
	    C     2.2401784622   0.5350112642  -1.8760352455
	    C     1.6825731150   0.4899728054  -0.4688778137
	    C     2.4610068218   1.3116830496   0.5754431456
	    C     3.5879957422   0.3772661684   1.0566693302
	    C     3.9632941436  -0.4507145122  -0.1891193189
	    C     2.6448982242  -0.5979718461  -0.9502110274
	    C     0.2321326903   0.2168438353  -0.2415399507
	    C    -0.1803396130  -0.6432942480   0.7953638285
	    C    -1.5363061745  -0.8779215387   1.0472525979
	    C    -2.5401639242  -0.2648548388   0.2733328383
	    C    -2.1306030200   0.6040846235  -0.7734739207
	    C    -0.7635029545   0.8332487171  -1.0125023687
	    H    -0.4644189026   1.5116360312  -1.8175856332
	    H    -2.8398622228   1.1140045263  -1.4121164310
	    O    -3.8233851230  -0.6283515298   0.6754706898
	    H    -1.8345088507  -1.5539709000   1.8538919546
	    H     0.5768171522  -1.1451572342   1.4067910351
	    H     2.2515590898  -1.5940925741  -1.1738359593
	    H     1.5568661279   0.2915923211  -2.6944982304
	    H     2.9936173620   1.2955163574  -2.1076612522
	    H     4.3942066894  -1.4279254507   0.0809873416
	    H     4.7143189936   0.0799700279  -0.8015952633
	    H     3.1813586611  -0.3022183858   1.8267937710
	    H     4.4458098296   0.9105865825   1.5004015843
	    H     1.7974627301   1.6256246759   1.3965388873
	    H     2.8769799524   2.2254120794   0.1133861833
	    C    -5.0290895746  -0.1673589964   0.0803546381
	    H    -5.8471780554  -0.6456858995   0.6340039408
	    H    -5.1499358891   0.9255275459   0.1395950449
	    H    -5.1187607925  -0.4382158734  -0.9831668575
			--------------------------
			 OPTKING Finished Execution 
			--------------------------

    Structure for next step:
    Molecular point group: c1
    Full point group: C1

    Geometry (in Angstrom), charge = 0, multiplicity = 1:

    C            2.229422274425     0.485911855504    -1.815169666709
    C            1.671816925073     0.440873396537    -0.408012229335
    C            2.450250634939     1.262583643997     0.636308734115
    C            3.577239559748     0.328166759047     1.117534920543
    C            3.952537962587    -0.499813924780    -0.128253733463
    C            2.634142038060    -0.647071259290    -0.889345444925
    C            0.221376494680     0.167744425320    -0.180674365455
    C           -0.191095810301    -0.692393661327     0.856229417786
    C           -1.547062377105    -0.927020952932     1.108118188263
    C           -2.550920130756    -0.313954250629     0.334198425578
    C           -2.141359224964     0.554985215028    -0.712608337496
    C           -0.774259154012     0.784149309605    -0.951636786486
    H           -0.475175101006     1.462536626341    -1.756720054127
    H           -2.850618430488     1.064905119881    -1.351250850375
    O           -3.834141334616    -0.677450943072     0.736336278610
    H           -1.845265054498    -1.603070316910     1.914757548111
    H            0.566060957887    -1.194256649513     1.467656626814
    H            2.240802902143    -1.643191991203    -1.112970377725
    H            1.546109937526     0.242492911456    -2.633632654747
    H            2.982861177222     1.246416951712    -2.046795674230
    H            4.383450510101    -1.477024867124     0.141852928170
    H            4.703562815551     0.030870617377    -0.740729680201
    H            3.170602477110    -0.351317797759     1.887659364433
    H            4.435053650576     0.861487175276     1.561267176395
    H            1.786706540574     1.576525271496     1.457404478983
    H            2.866223767194     2.176312677358     0.174251769953
    C           -5.039845790876    -0.216458407833     0.141220224637
    H           -5.857934274929    -0.694785312858     0.694869529491
    H           -5.160692105845     0.876428138722     0.200460631668
    H           -5.129517009200    -0.487315285917    -0.922301275115


Scratch directory: /local_scratch/pbs.4067448.pbs02/
gradient() will perform analytic gradient computation.

*** tstart() called on skystd35.palmetto.clemson.edu
*** at Tue Nov 23 21:58:43 2021

   => Loading Basis Set <=

    Name: CC-PVDZ
    Role: ORBITAL
    Keyword: BASIS
    atoms 1-12, 27            entry C          line   138 file /home/maxbuskirk/.conda/envs/psifour/share/psi4/basis/cc-pvdz.gbs 
    atoms 13-14, 16-26, 28-30 entry H          line    22 file /home/maxbuskirk/.conda/envs/psifour/share/psi4/basis/cc-pvdz.gbs 
    atoms 15                  entry O          line   198 file /home/maxbuskirk/.conda/envs/psifour/share/psi4/basis/cc-pvdz.gbs 


         ---------------------------------------------------------
                                   SCF
               by Justin Turney, Rob Parrish, Andy Simmonett
                          and Daniel G. A. Smith
                              RHF Reference
                        1 Threads,    500 MiB Core
         ---------------------------------------------------------

  ==> Geometry <==

    Molecular point group: c1
    Full point group: C1

    Geometry (in Angstrom), charge = 0, multiplicity = 1:

       Center              X                  Y                   Z               Mass       
    ------------   -----------------  -----------------  -----------------  -----------------
         C            2.229422274425     0.485911855504    -1.815169666709    12.000000000000
         C            1.671816925073     0.440873396537    -0.408012229335    12.000000000000
         C            2.450250634939     1.262583643997     0.636308734115    12.000000000000
         C            3.577239559748     0.328166759047     1.117534920543    12.000000000000
         C            3.952537962587    -0.499813924780    -0.128253733463    12.000000000000
         C            2.634142038060    -0.647071259290    -0.889345444925    12.000000000000
         C            0.221376494680     0.167744425320    -0.180674365455    12.000000000000
         C           -0.191095810301    -0.692393661327     0.856229417786    12.000000000000
         C           -1.547062377105    -0.927020952932     1.108118188263    12.000000000000
         C           -2.550920130756    -0.313954250629     0.334198425578    12.000000000000
         C           -2.141359224964     0.554985215028    -0.712608337496    12.000000000000
         C           -0.774259154012     0.784149309605    -0.951636786486    12.000000000000
         H           -0.475175101006     1.462536626341    -1.756720054127     1.007825032230
         H           -2.850618430488     1.064905119881    -1.351250850375     1.007825032230
         O           -3.834141334616    -0.677450943072     0.736336278610    15.994914619570
         H           -1.845265054498    -1.603070316910     1.914757548111     1.007825032230
         H            0.566060957887    -1.194256649513     1.467656626814     1.007825032230
         H            2.240802902143    -1.643191991203    -1.112970377725     1.007825032230
         H            1.546109937526     0.242492911456    -2.633632654747     1.007825032230
         H            2.982861177222     1.246416951712    -2.046795674230     1.007825032230
         H            4.383450510101    -1.477024867124     0.141852928170     1.007825032230
         H            4.703562815551     0.030870617377    -0.740729680201     1.007825032230
         H            3.170602477110    -0.351317797759     1.887659364433     1.007825032230
         H            4.435053650576     0.861487175276     1.561267176395     1.007825032230
         H            1.786706540574     1.576525271496     1.457404478983     1.007825032230
         H            2.866223767194     2.176312677358     0.174251769953     1.007825032230
         C           -5.039845790876    -0.216458407833     0.141220224637    12.000000000000
         H           -5.857934274929    -0.694785312858     0.694869529491     1.007825032230
         H           -5.160692105845     0.876428138722     0.200460631668     1.007825032230
         H           -5.129517009200    -0.487315285917    -0.922301275115     1.007825032230

  Running in c1 symmetry.

  Rotational constants: A =      0.07102  B =      0.01065  C =      0.01005 [cm^-1]
  Rotational constants: A =   2129.09942  B =    319.37603  C =    301.30459 [MHz]
  Nuclear repulsion =  853.047783931669642

  Charge       = 0
  Multiplicity = 1
  Electrons    = 102
  Nalpha       = 51
  Nbeta        = 51

  ==> Algorithm <==

  SCF Algorithm Type is DF.
  DIIS enabled.
  MOM disabled.
  Fractional occupation disabled.
  Guess Type is READ.
  Energy threshold   = 1.00e-10
  Density threshold  = 1.00e-10
  Integral threshold = 1.00e-12

  ==> Primary Basis <==

  Basis Set: CC-PVDZ
    Blend: CC-PVDZ
    Number of shells: 132
    Number of basis functions: 276
    Number of Cartesian functions: 290
    Spherical Harmonics?: true
    Max angular momentum: 2

   => Loading Basis Set <=

    Name: (CC-PVDZ AUX)
    Role: JKFIT
    Keyword: DF_BASIS_SCF
    atoms 1-12, 27            entry C          line   121 file /home/maxbuskirk/.conda/envs/psifour/share/psi4/basis/cc-pvdz-jkfit.gbs 
    atoms 13-14, 16-26, 28-30 entry H          line    51 file /home/maxbuskirk/.conda/envs/psifour/share/psi4/basis/cc-pvdz-jkfit.gbs 
    atoms 15                  entry O          line   221 file /home/maxbuskirk/.conda/envs/psifour/share/psi4/basis/cc-pvdz-jkfit.gbs 

   => Loading Basis Set <=

    Name: CC-PVDZ
    Role: ORBITAL
    Keyword: BASIS
    atoms 1-12, 27            entry C          line   138 file /home/maxbuskirk/.conda/envs/psifour/share/psi4/basis/cc-pvdz.gbs 
    atoms 13-14, 16-26, 28-30 entry H          line    22 file /home/maxbuskirk/.conda/envs/psifour/share/psi4/basis/cc-pvdz.gbs 
    atoms 15                  entry O          line   198 file /home/maxbuskirk/.conda/envs/psifour/share/psi4/basis/cc-pvdz.gbs 

  Reading orbitals from file /local_scratch/pbs.4067448.pbs02/rOMe.mol.1601956.180.npy, no projection.

  ==> Integral Setup <==

  ==> DiskDFJK: Density-Fitted J/K Matrices <==

    J tasked:                  Yes
    K tasked:                  Yes
    wK tasked:                  No
    OpenMP threads:              1
    Integrals threads:           1
    Memory [MiB]:              375
    Algorithm:                Core
    Integral Cache:           NONE
    Schwarz Cutoff:          1E-12
    Fitting Condition:       1E-10

   => Auxiliary Basis Set <=

  Basis Set: (CC-PVDZ AUX)
    Blend: CC-PVDZ-JKFIT
    Number of shells: 480
    Number of basis functions: 1348
    Number of Cartesian functions: 1534
    Spherical Harmonics?: true
    Max angular momentum: 3

  Minimum eigenvalue in the overlap matrix is 3.2690835818E-04.
  Reciprocal condition number of the overlap matrix is 4.7239197536E-05.
    Using symmetric orthogonalization.

  ==> Pre-Iterations <==

  SCF Guess: Orbitals guess was supplied from a previous computation.

   -------------------------------------------------------
    Irrep   Nso     Nmo     Nalpha   Nbeta   Ndocc  Nsocc
   -------------------------------------------------------
     A        276     276      51      51      51       0
   -------------------------------------------------------
    Total     276     276      51      51      51       0
   -------------------------------------------------------

  ==> Iterations <==

                           Total Energy        Delta E     RMS |[F,P]|

   @DF-RHF iter   0:  -576.05947418500421   -5.76059e+02   2.40973e-03 
   @DF-RHF iter   1:  -576.43398454179692   -3.74510e-01   5.59799e-04 DIIS
   @DF-RHF iter   2:  -576.44896431273150   -1.49798e-02   2.70189e-04 DIIS
   @DF-RHF iter   3:  -576.45197978965325   -3.01548e-03   9.00659e-05 DIIS
   @DF-RHF iter   4:  -576.45244292566008   -4.63136e-04   2.96214e-05 DIIS
   @DF-RHF iter   5:  -576.45248455299281   -4.16273e-05   5.26921e-06 DIIS
   @DF-RHF iter   6:  -576.45248665780389   -2.10481e-06   2.32991e-06 DIIS
   @DF-RHF iter   7:  -576.45248700151581   -3.43712e-07   6.17111e-07 DIIS
   @DF-RHF iter   8:  -576.45248703254583   -3.10300e-08   2.09768e-07 DIIS
   @DF-RHF iter   9:  -576.45248703747029   -4.92446e-09   8.97256e-08 DIIS
   @DF-RHF iter  10:  -576.45248703854463   -1.07434e-09   3.37825e-08 DIIS
   @DF-RHF iter  11:  -576.45248703880713   -2.62503e-10   1.54128e-08 DIIS
   @DF-RHF iter  12:  -576.45248703886580   -5.86624e-11   6.42325e-09 DIIS
   @DF-RHF iter  13:  -576.45248703887523   -9.43601e-12   2.08023e-09 DIIS
   @DF-RHF iter  14:  -576.45248703887637   -1.13687e-12   6.76360e-10 DIIS
   @DF-RHF iter  15:  -576.45248703887705   -6.82121e-13   2.35184e-10 DIIS
   @DF-RHF iter  16:  -576.45248703887660    4.54747e-13   7.22198e-11 DIIS
  Energy and wave function converged.


  ==> Post-Iterations <==

    Orbital Energies [Eh]
    ---------------------

    Doubly Occupied:                                                      

       1A    -20.579567     2A    -11.306828     3A    -11.293350  
       4A    -11.240832     5A    -11.239567     6A    -11.239210  
       7A    -11.235213     8A    -11.234079     9A    -11.231652  
      10A    -11.229966    11A    -11.228657    12A    -11.225879  
      13A    -11.224870    14A    -11.224209    15A     -1.390423  
      16A     -1.179067    17A     -1.132904    18A     -1.035531  
      19A     -1.013784    20A     -1.008465    21A     -0.957177  
      22A     -0.928020    23A     -0.839856    24A     -0.819455  
      25A     -0.806880    26A     -0.770790    27A     -0.736273  
      28A     -0.704724    29A     -0.678637    30A     -0.654564  
      31A     -0.638654    32A     -0.627566    33A     -0.614254  
      34A     -0.594808    35A     -0.580826    36A     -0.575661  
      37A     -0.566886    38A     -0.560918    39A     -0.539112  
      40A     -0.516450    41A     -0.508246    42A     -0.479877  
      43A     -0.477072    44A     -0.474732    45A     -0.467770  
      46A     -0.465448    47A     -0.448926    48A     -0.402859  
      49A     -0.382439    50A     -0.332511    51A     -0.296171  

    Virtual:                                                              

      52A      0.131846    53A      0.147289    54A      0.179054  
      55A      0.183703    56A      0.201876    57A      0.209163  
      58A      0.214362    59A      0.235058    60A      0.238192  
      61A      0.252768    62A      0.252962    63A      0.260306  
      64A      0.264389    65A      0.266976    66A      0.272794  
      67A      0.285534    68A      0.296259    69A      0.303925  
      70A      0.309870    71A      0.337882    72A      0.351863  
      73A      0.360546    74A      0.375586    75A      0.391598  
      76A      0.410280    77A      0.417805    78A      0.437128  
      79A      0.465443    80A      0.481247    81A      0.497892  
      82A      0.515525    83A      0.521827    84A      0.530862  
      85A      0.587939    86A      0.613897    87A      0.621290  
      88A      0.630532    89A      0.636425    90A      0.650526  
      91A      0.663731    92A      0.672974    93A      0.681860  
      94A      0.689633    95A      0.704034    96A      0.716715  
      97A      0.718481    98A      0.727973    99A      0.729011  
     100A      0.738468   101A      0.749302   102A      0.751002  
     103A      0.757219   104A      0.779055   105A      0.792979  
     106A      0.814025   107A      0.821938   108A      0.827743  
     109A      0.839055   110A      0.849681   111A      0.854732  
     112A      0.864368   113A      0.868179   114A      0.870686  
     115A      0.876278   116A      0.888118   117A      0.891186  
     118A      0.893816   119A      0.897848   120A      0.904818  
     121A      0.907043   122A      0.908781   123A      0.913685  
     124A      0.920546   125A      0.929350   126A      0.939976  
     127A      0.943128   128A      0.950066   129A      0.956685  
     130A      0.968435   131A      0.974449   132A      0.988926  
     133A      1.012046   134A      1.042319   135A      1.056705  
     136A      1.127812   137A      1.133160   138A      1.136474  
     139A      1.149994   140A      1.168360   141A      1.170669  
     142A      1.173973   143A      1.186293   144A      1.221965  
     145A      1.247838   146A      1.255447   147A      1.267882  
     148A      1.295031   149A      1.299482   150A      1.321833  
     151A      1.329074   152A      1.342472   153A      1.363838  
     154A      1.371147   155A      1.392624   156A      1.433200  
     157A      1.444478   158A      1.456925   159A      1.467176  
     160A      1.481628   161A      1.491002   162A      1.519947  
     163A      1.524279   164A      1.547989   165A      1.586720  
     166A      1.613689   167A      1.632481   168A      1.656182  
     169A      1.664361   170A      1.669965   171A      1.691200  
     172A      1.714780   173A      1.727936   174A      1.737598  
     175A      1.760379   176A      1.783335   177A      1.787370  
     178A      1.795768   179A      1.817411   180A      1.826273  
     181A      1.832961   182A      1.852472   183A      1.860766  
     184A      1.871776   185A      1.874569   186A      1.878618  
     187A      1.884616   188A      1.902590   189A      1.912720  
     190A      1.915928   191A      1.920438   192A      1.925229  
[...]
	  111 D(2,6,1,19)     =   -107.752946    -0.000000     0.010253  -107.742693
	  112 D(2,6,1,20)     =    108.151866    -0.000000     0.005256   108.157122
	  113 D(2,6,5,4)      =     19.689949    -0.000000    -0.016986    19.672963
	  114 D(2,6,5,21)     =    140.984235     0.000000    -0.009484   140.974751
	  115 D(2,6,5,22)     =    -99.462552    -0.000000    -0.014743   -99.477295
	  116 D(2,7,8,9)      =    177.967052    -0.000000    -0.006674   177.960378
	  117 D(2,7,8,17)     =     -2.723166    -0.000000    -0.001775    -2.724941
	  118 D(2,7,12,11)    =   -178.120145     0.000000     0.007453  -178.112692
	  119 D(2,7,12,13)    =      1.705340     0.000000     0.007019     1.712360
	  120 D(3,2,1,6)      =     94.578927     0.000000     0.014110    94.593036
	  121 D(3,2,1,19)     =   -158.082272     0.000000     0.024860  -158.057413
	  122 D(3,2,1,20)     =    -13.153056     0.000000     0.021113   -13.131943
	  123 D(3,2,6,5)      =      1.123839     0.000000     0.019705     1.143544
	  124 D(3,2,6,18)     =    143.085735     0.000000     0.015969   143.101704
	  125 D(3,2,7,8)      =    -69.100241    -0.000000    -0.040905   -69.141146
	  126 D(3,2,7,12)     =    108.648441    -0.000000    -0.043723   108.604718
	  127 D(3,4,5,6)      =    -32.959128     0.000000     0.005833   -32.953295
	  128 D(3,4,5,21)     =   -153.993462    -0.000000    -0.000511  -153.993973
	  129 D(3,4,5,22)     =     86.283404    -0.000000     0.001166    86.284570
	  130 D(4,3,2,6)      =    -21.556478    -0.000000    -0.014266   -21.570744
	  131 D(4,3,2,7)      =    120.433393    -0.000000    -0.008785   120.424609
	  132 D(4,5,6,18)     =   -121.929236    -0.000000    -0.017329  -121.946564
	  133 D(5,4,3,25)     =    154.357578    -0.000000    -0.000861   154.356717
	  134 D(5,4,3,26)     =    -85.362453    -0.000000    -0.001151   -85.363604
	  135 D(5,6,1,19)     =    156.250131     0.000000     0.025034   156.275165
	  136 D(5,6,1,20)     =     12.154943     0.000000     0.020037    12.174980
	  137 D(5,6,2,7)      =   -139.517527    -0.000000     0.009581  -139.507946
	  138 D(6,1,2,7)      =   -111.456891     0.000000     0.006466  -111.450425
	  139 D(6,2,1,19)     =    107.338801    -0.000000     0.010750   107.349551
	  140 D(6,2,1,20)     =   -107.731982    -0.000000     0.007003  -107.724979
	  141 D(6,2,3,25)     =   -143.037200     0.000000    -0.010550  -143.047750
	  142 D(6,2,3,26)     =     97.857899    -0.000000    -0.015438    97.842461
	  143 D(6,2,7,8)      =     66.822634     0.000000    -0.027628    66.795006
	  144 D(6,2,7,12)     =   -115.428684     0.000000    -0.030446  -115.459130
	  145 D(6,5,4,23)     =     83.024431    -0.000000     0.002573    83.027004
	  146 D(6,5,4,24)     =   -157.191345     0.000000     0.005515  -157.185830
	  147 D(7,2,1,19)     =     -4.118089     0.000000     0.017216    -4.100874
	  148 D(7,2,1,20)     =    140.811127     0.000000     0.013469   140.824596
	  149 D(7,2,3,25)     =     -1.047329     0.000000    -0.005068    -1.052397
	  150 D(7,2,3,26)     =   -120.152230    -0.000000    -0.009956  -120.162186
	  151 D(7,2,6,18)     =      2.444369    -0.000000     0.005844     2.450213
	  152 D(7,8,9,10)     =      0.051660     0.000000    -0.000165     0.051495
	  153 D(7,8,9,16)     =    179.601669     0.000000    -0.000147   179.601522
	  154 D(7,12,11,10)   =      0.323645    -0.000000    -0.001451     0.322194
	  155 D(7,12,11,14)   =   -179.807029     0.000000     0.000616  -179.806413
	  156 D(8,7,12,11)    =     -0.320600     0.000000     0.004724    -0.315876
	  157 D(8,7,12,13)    =    179.504886     0.000000     0.004290   179.509176
	  158 D(8,9,10,11)    =     -0.053068     0.000000     0.003534    -0.049534
	  159 D(8,9,10,15)    =    179.767091    -0.000000    -0.012275   179.754817
	  160 D(9,8,7,12)     =      0.131757    -0.000000    -0.003909     0.127848
	  161 D(9,10,11,12)   =     -0.130116    -0.000000    -0.002733    -0.132849
	  162 D(9,10,11,14)   =   -179.996479    -0.000000    -0.004841  -180.001320
	  163 D(9,10,15,27)   =   -179.991170     0.000000     0.055020  -179.936150
	  164 D(10,9,8,17)    =   -179.257013    -0.000000    -0.005033  -179.262046
	  165 D(10,11,12,13)  =   -179.502002    -0.000000    -0.001016  -179.503018
	  166 D(10,15,27,28)  =   -179.991062     0.000000     0.048786  -179.942277
	  167 D(10,15,27,29)  =    -61.132358     0.000000     0.051509   -61.080849
	  168 D(10,15,27,30)  =     61.151271     0.000000     0.046565    61.197836
	  169 D(11,10,9,16)   =   -179.617982     0.000000     0.003517  -179.614465
	  170 D(11,10,15,27)  =     -0.182938     0.000000     0.038132    -0.144805
	  171 D(12,7,8,17)    =    179.441540     0.000000     0.000990   179.442529
	  172 D(12,11,10,15)  =   -179.931557     0.000000     0.014753  -179.916804
	  173 D(13,12,11,14)  =      0.367324     0.000000     0.001051     0.368375
	  174 D(14,11,10,15)  =      0.202080     0.000000     0.012645     0.214725
	  175 D(15,10,9,16)   =      0.202177    -0.000000    -0.012292     0.189885
	  176 D(16,9,8,17)    =      0.292996    -0.000000    -0.005014     0.287982
	  177 D(18,6,1,19)    =      1.724612     0.000000     0.021635     1.746247
	  178 D(18,6,1,20)    =   -142.370576     0.000000     0.016638  -142.353937
	  179 D(18,6,5,21)    =     -0.634950     0.000000    -0.009827    -0.644776
	  180 D(18,6,5,22)    =    118.918263    -0.000000    -0.015086   118.903178
	  181 D(21,5,4,23)    =    -38.009904    -0.000000    -0.003771   -38.013674
	  182 D(21,5,4,24)    =     81.774321     0.000000    -0.000829    81.773492
	  183 D(22,5,4,23)    =   -157.733037    -0.000000    -0.002094  -157.735131
	  184 D(22,5,4,24)    =    -37.948813    -0.000000     0.000848   -37.947965
	  185 D(23,4,3,25)    =     38.344310    -0.000000    -0.000287    38.344022
	  186 D(23,4,3,26)    =    158.624279    -0.000000    -0.000578   158.623701
	  187 D(24,4,3,25)    =    -81.391688     0.000000     0.003036   -81.388652
	  188 D(24,4,3,26)    =     38.888281    -0.000000     0.002745    38.891026
	 ---------------------------------------------------------------------------
	Successfully symmetrized geometry.

  ==> Convergence Check <==

  Measures of convergence in internal coordinates in au.
  Criteria marked as inactive (o), active & met (*), and active & unmet ( ).
  ---------------------------------------------------------------------------------------------
   Step     Total Energy     Delta E     MAX Force     RMS Force      MAX Disp      RMS Disp   
  ---------------------------------------------------------------------------------------------
    Convergence Criteria    1.00e-06 *    3.00e-04 *             o    1.20e-03 *             o
  ---------------------------------------------------------------------------------------------
      7    -578.44012357   -4.03e-06      1.65e-04 *    1.89e-05 o    9.60e-04 *    2.26e-04 o  ~
  ---------------------------------------------------------------------------------------------


  **** Optimization is complete! (in 7 steps) ****

  ==> Optimization Summary <==

  Measures of convergence in internal coordinates in au.
  --------------------------------------------------------------------------------------------------------------- ~
   Step         Total Energy             Delta E       MAX Force       RMS Force        MAX Disp        RMS Disp  ~
  --------------------------------------------------------------------------------------------------------------- ~
      1    -578.430934107863   -578.430934107863      0.08263640      0.00826330      0.27385990      0.02789764  ~
      2    -578.432952498393     -0.002018390530      0.04384075      0.00467759      0.08656286      0.00902892  ~
      3    -578.438636674319     -0.005684175926      0.02367793      0.00230520      0.04276318      0.00417275  ~
      4    -578.439884111704     -0.001247437385      0.01035735      0.00098805      0.04107579      0.00400150  ~
      5    -578.440047573752     -0.000163462048      0.00636809      0.00062952      0.01750734      0.00167741  ~
      6    -578.440119545278     -0.000071971526      0.00145509      0.00013417      0.00403510      0.00048203  ~
      7    -578.440123571693     -0.000004026415      0.00016529      0.00001885      0.00096028      0.00022613  ~
  --------------------------------------------------------------------------------------------------------------- ~

	Writing optimization data to binary file.
	Final energy is   -578.4401235716928
	Final (previous) structure:
	Cartesian Geometry (in Angstrom)
	    C     2.0659083141   0.5772331909  -1.9203488922
	    C     1.6039740064   0.4940274002  -0.4806413326
	    C     2.4089737226   1.3391903681   0.5247678107
	    C     3.6037400159   0.4474059352   0.9162447039
	    C     3.9331739777  -0.3481269547  -0.3635790144
	    C     2.5776826952  -0.5471847649  -1.0413550246
	    C     0.1857426240   0.1545003033  -0.1652638939
	    C    -0.1151362856  -0.7414704204   0.8852701625
	    C    -1.4369440310  -1.0397908361   1.2236684075
	    C    -2.5040382571  -0.4483614046   0.5167223563
	    C    -2.2241244181   0.4461131113  -0.5321849319
	    C    -0.8869737308   0.7389413637  -0.8579480324
	    H    -0.6784307793   1.4426079211  -1.6704276216
	    H    -3.0252720733   0.9221383266  -1.1004798015
	    O    -3.7559135853  -0.8136722550   0.9269476953
	    H    -1.6767682444  -1.7371152622   2.0312310589
	    H     0.7035473528  -1.2181197092   1.4355129266
	    H     2.2155393044  -1.5574052560  -1.2540276007
	    H     1.3421346780   0.3129576648  -2.6964399428
	    H     2.7693335055   1.3732805964  -2.1871110095
	    H     4.4227664540  -1.3093801639  -0.1402177321
	    H     4.6180746173   0.2246483365  -1.0145007241
	    H     3.2756954369  -0.2599189980   1.6986711656
	    H     4.4623747517   1.0136609515   1.3153532253
	    H     1.7886521315   1.6149749759   1.3920643472
	    H     2.7559369253   2.2768751532   0.0538262665
	    C    -4.8404037877  -0.2270607586   0.2250975902
	    H    -5.7512976627  -0.6306902345   0.6851861502
	    H    -4.8404699591   0.8729473798   0.3211993905
	    H    -4.8243350084  -0.4941223586  -0.8462229896
	Saving final (previous) structure.
	Cleaning optimization helper files.
			--------------------------
			 OPTKING Finished Execution 
			--------------------------

    Final optimized geometry and variables:
    Molecular point group: c1
    Full point group: C1

    Geometry (in Angstrom), charge = 0, multiplicity = 1:

    C            2.065908322230     0.577233193190    -1.920348899763
    C            1.603974012680     0.494027402102    -0.480641334461
    C            2.408973732092     1.339190373401     0.524767812721
    C            3.603740030115     0.447405936969     0.916244707455
    C            3.933173993130    -0.348126956040    -0.363579015835
    C            2.577682705328    -0.547184767039    -1.041355028723
    C            0.185742624765     0.154500303906    -0.165263894513
    C           -0.115136286026    -0.741470423348     0.885270165968
    C           -1.436944036633    -1.039790840156     1.223668412276
    C           -2.504038266929    -0.448361406331     0.516722358369
    C           -2.224124426801     0.446113113059    -0.532184933968
    C           -0.886973734271     0.738941366571    -0.857948035759
    H           -0.678430781945     1.442607926768    -1.670427628175
    H           -3.025272085206     0.922138330266    -1.100479805836
    O           -3.755913600065    -0.813672258218     0.926947698921
    H           -1.676768251036    -1.737115269010     2.031231066857
    H            0.703547355555    -1.218119713945     1.435512932233
    H            2.215539313138    -1.557405262088    -1.254027605679
    H            1.342134683319     0.312957666017    -2.696439953446
    H            2.769333516377     1.373280601756    -2.187111018140
    H            4.422766471362    -1.309380169036    -0.140217732681
    H            4.618074635462     0.224648337336    -1.014500728067
    H            3.275695449752    -0.259918998977     1.698671172316
    H            4.462374769207     1.013660955440     1.315353230421
    H            1.788652138569     1.614974982282     1.392064352643
    H            2.755936936169     2.276875162148     0.053826266720
    C           -4.840403806716    -0.227060759468     0.225097591056
    H           -5.751297685297    -0.630690236979     0.685186152939
    H           -4.840469978098     0.872947383280     0.321199391768
    H           -4.824335027364    -0.494122360585    -0.846222992935

	Removing binary optimization data file.
	Cleaning optimization helper files.


Properties will be evaluated at   0.000000,   0.000000,   0.000000 [a0]
OEProp: No title given, name of density matrix used for the following properties is 'DF-MP2 relaxed density'
  Mulliken Charges: (a.u.)
   Center  Symbol    Alpha    Beta     Spin     Total
       1     C     2.97229  2.97229  0.00000  0.05541
       2     C     3.12296  3.12296  0.00000 -0.24593
       3     C     2.97988  2.97988  0.00000  0.04023
       4     C     3.02887  3.02887  0.00000 -0.05774
       5     C     2.99997  2.99997  0.00000  0.00005
       6     C     3.05349  3.05349  0.00000 -0.10699
       7     C     3.02930  3.02930  0.00000 -0.05860
       8     C     2.98937  2.98937  0.00000  0.02126
       9     C     3.00232  3.00232  0.00000 -0.00465
      10     C     2.93073  2.93073  0.00000  0.13853
      11     C     3.03490  3.03490  0.00000 -0.06980
      12     C     2.99562  2.99562  0.00000  0.00876
      13     H     0.49721  0.49721  0.00000  0.00559
      14     H     0.49049  0.49049  0.00000  0.01901
      15     O     4.15783  4.15783  0.00000 -0.31567
      16     H     0.48948  0.48948  0.00000  0.02104
      17     H     0.49781  0.49781  0.00000  0.00438
      18     H     0.48852  0.48852  0.00000  0.02297
      19     H     0.47821  0.47821  0.00000  0.04359
      20     H     0.48257  0.48257  0.00000  0.03486
      21     H     0.48014  0.48014  0.00000  0.03972
      22     H     0.48199  0.48199  0.00000  0.03602
      23     H     0.48062  0.48062  0.00000  0.03877
      24     H     0.48562  0.48562  0.00000  0.02875
      25     H     0.48036  0.48036  0.00000  0.03928
      26     H     0.48290  0.48290  0.00000  0.03421
      27     C     2.95952  2.95952  0.00000  0.08095
      28     H     0.46922  0.46922  0.00000  0.06157
      29     H     0.47884  0.47884  0.00000  0.04231
      30     H     0.47894  0.47894  0.00000  0.04213

   Total alpha = 51.00000, Total beta = 51.00000, Total charge = -0.00000

    Molecular point group: c1
    Full point group: C1

    Geometry (in Angstrom), charge = 0, multiplicity = 1:

       Center              X                  Y                   Z               Mass       
    ------------   -----------------  -----------------  -----------------  -----------------
         C            2.065908322230     0.577233193190    -1.920348899763    12.000000000000
         C            1.603974012680     0.494027402102    -0.480641334461    12.000000000000
         C            2.408973732092     1.339190373401     0.524767812721    12.000000000000
         C            3.603740030115     0.447405936969     0.916244707455    12.000000000000
         C            3.933173993130    -0.348126956040    -0.363579015835    12.000000000000
         C            2.577682705328    -0.547184767039    -1.041355028723    12.000000000000
         C            0.185742624765     0.154500303906    -0.165263894513    12.000000000000
         C           -0.115136286026    -0.741470423348     0.885270165968    12.000000000000
         C           -1.436944036633    -1.039790840156     1.223668412276    12.000000000000
         C           -2.504038266929    -0.448361406331     0.516722358369    12.000000000000
         C           -2.224124426801     0.446113113059    -0.532184933968    12.000000000000
         C           -0.886973734271     0.738941366571    -0.857948035759    12.000000000000
         H           -0.678430781945     1.442607926768    -1.670427628175     1.007825032230
         H           -3.025272085206     0.922138330266    -1.100479805836     1.007825032230
         O           -3.755913600065    -0.813672258218     0.926947698921    15.994914619570
         H           -1.676768251036    -1.737115269010     2.031231066857     1.007825032230
         H            0.703547355555    -1.218119713945     1.435512932233     1.007825032230
         H            2.215539313138    -1.557405262088    -1.254027605679     1.007825032230
         H            1.342134683319     0.312957666017    -2.696439953446     1.007825032230
         H            2.769333516377     1.373280601756    -2.187111018140     1.007825032230
         H            4.422766471362    -1.309380169036    -0.140217732681     1.007825032230
         H            4.618074635462     0.224648337336    -1.014500728067     1.007825032230
         H            3.275695449752    -0.259918998977     1.698671172316     1.007825032230
         H            4.462374769207     1.013660955440     1.315353230421     1.007825032230
         H            1.788652138569     1.614974982282     1.392064352643     1.007825032230
         H            2.755936936169     2.276875162148     0.053826266720     1.007825032230
         C           -4.840403806716    -0.227060759468     0.225097591056    12.000000000000
         H           -5.751297685297    -0.630690236979     0.685186152939     1.007825032230
         H           -4.840469978098     0.872947383280     0.321199391768     1.007825032230
         H           -4.824335027364    -0.494122360585    -0.846222992935     1.007825032230



  Variable Map:
  ----------------------------------------------------------------------------
  "CURRENT CORRELATION ENERGY"           =>      -1.981622378339
  "CURRENT DIPOLE X"                     =>      -0.549678392400
  "CURRENT DIPOLE Y"                     =>       0.694972084215
  "CURRENT DIPOLE Z"                     =>      -0.792968915467
  "CURRENT ENERGY"                       =>    -578.440123571693
  "CURRENT REFERENCE ENERGY"             =>    -576.458501193354
  "CUSTOM SCS-MP2 CORRELATION ENERGY"    =>      -1.930864905815
  "CUSTOM SCS-MP2 TOTAL ENERGY"          =>    -578.389366099169
  "HF TOTAL ENERGY"                      =>    -576.458501193354
  "MP2 CORRELATION ENERGY"               =>      -1.981622378339
  "MP2 DOUBLES ENERGY"                   =>      -1.981622378339
  "MP2 OPPOSITE-SPIN CORRELATION ENERGY" =>      -1.465758591964
  "MP2 SAME-SPIN CORRELATION ENERGY"     =>      -0.515863786374
  "MP2 SINGLES ENERGY"                   =>      -0.000000000000
  "MP2 TOTAL ENERGY"                     =>    -578.440123571693
  "NUCLEAR REPULSION ENERGY"             =>     858.180881062687
  "ONE-ELECTRON ENERGY"                  =>   -2485.302431510826
  "OPTIMIZATION ITERATIONS"              =>       7.000000000000
  "PCM POLARIZATION ENERGY"              =>       0.000000000000
  "PE ENERGY"                            =>       0.000000000000
  "SCF DIPOLE X"                         =>      -0.549678392400
  "SCF DIPOLE Y"                         =>       0.694972084215
  "SCF DIPOLE Z"                         =>      -0.792968915467
  "SCF ITERATION ENERGY"                 =>    -576.458501193354
  "SCF ITERATIONS"                       =>      13.000000000000
  "SCF TOTAL ENERGY"                     =>    -576.458501193354
  "SCS-MP2 CORRELATION ENERGY"           =>      -1.930864905815
  "SCS-MP2 TOTAL ENERGY"                 =>    -578.389366099169
  "TWO-ELECTRON ENERGY"                  =>    1050.663049254785



    Psi4 stopped on: Tuesday, 23 November 2021 10:10PM
    Psi4 wall time for execution: 0:13:31.96

*** Psi4 exiting successfully. Buy a developer a beer!
