
    -----------------------------------------------------------------------
          Psi4: An Open-Source Ab Initio Electronic Structure Package
                               Psi4 1.4 release

                         Git: Rev {HEAD} 9485035 


    D. G. A. Smith, L. A. Burns, A. C. Simmonett, R. M. Parrish,
    M. C. Schieber, R. Galvelis, P. Kraus, H. Kruse, R. Di Remigio,
    A. Alenaizan, A. M. James, S. Lehtola, J. P. Misiewicz, M. Scheurer,
    R. A. Shaw, J. B. Schriber, Y. Xie, Z. L. Glick, D. A. Sirianni,
    J. S. O'Brien, J. M. Waldrop, A. Kumar, E. G. Hohenstein,
    B. P. Pritchard, B. R. Brooks, H. F. Schaefer III, A. Yu. Sokolov,
    K. Patkowski, A. E. DePrince III, U. Bozkaya, R. A. King,
    F. A. Evangelista, J. M. Turney, T. D. Crawford, C. D. Sherrill,
    J. Chem. Phys. 152(18) 184108 (2020). https://doi.org/10.1063/5.0006002

                            Additional Code Authors
    E. T. Seidl, C. L. Janssen, E. F. Valeev, M. L. Leininger,
    J. F. Gonthier, R. M. Richard, H. R. McAlexander, M. Saitow, X. Wang,
    P. Verma, and M. H. Lechner

             Previous Authors, Complete List of Code Contributors,
                       and Citations for Specific Modules
    https://github.com/psi4/psi4/blob/master/codemeta.json
    https://github.com/psi4/psi4/graphs/contributors
    http://psicode.org/psi4manual/master/introduction.html#citing-psifour

    -----------------------------------------------------------------------


    Psi4 started on: Thursday, 17 February 2022 05:16PM

    Process ID: 2521774
    Host:       skylm001.palmetto.clemson.edu
    PSIDATADIR: /home/maxbuskirk/.conda/envs/psifour/share/psi4
    Memory:     500.0 MiB
    Threads:    1
    
  ==> Input File <==

--------------------------------------------------------------------------
memory 62 GB

molecule mol {
1 1
         C            1.077907759776     0.541020428307    -1.878474830315
         C            0.722777759776     0.429799428307    -0.411062830315
         C            1.550148663990     1.311704428307     0.542472169685
         C            2.814403823259     0.481609428307     0.843861169685
         C            3.093801823259    -0.293193571693    -0.460425830315
         C            1.706404823259    -0.558546571693    -1.044572830315
         H            1.382285823259    -1.585261571693    -1.239058830315
         H            3.644637823259    -1.229384571693    -0.276963830315
         H            3.702531823259     0.314463428307    -1.153842830315
         H            2.579336823259    -0.243151571693     1.643563169685
         H            3.668392823259     1.091031428307     1.185050169685
         H            0.979479823259     1.552332428307     1.452805169685
         H            1.815195823259     2.267570428307     0.054996169685
         C           -0.650727176741     0.016578428307     0.003385169685
         C           -0.819943176741    -0.891767571693     1.069482169685
         C           -2.102210176741    -1.262534571693     1.500807169685
         C           -3.238824176741    -0.729499571693     0.868850169685
         C           -3.082804176741     0.175863428307    -0.192843830315
         C           -1.796987176741     0.547191428307    -0.619069830315
         H           -1.675583176741     1.259097428307    -1.441873830315
         H           -3.963570176741     0.595522428307    -0.688723830315
         H           -4.239727176741    -1.020863571693     1.200828169685
         H           -2.216332176741    -1.972695571693     2.325667169685
         H            0.066148823259    -1.317178571693     1.553407169685
         H            0.317108823259     0.241631428307    -2.604827830315
         H            1.719294823259     1.373075428307    -2.188284830315
         H            0.865769193259     1.433514558307    -2.470915760315
}

set scf_type df
set opt_type ts
set basis cc-pVDZ
set reference rhf
set geom_maxiter 1000
set opt_coordinates cartesian
set full_hess_every 0
set dynamic_level 1

mol.update_geometry()
mol.symmetrize(1e-3)

e, wfn = optimize('CCSD', return_wfn=True)
oeprop(wfn, "MULLIKEN_CHARGES")
mol.print_out()
print_variables()
--------------------------------------------------------------------------

  Memory set to  57.742 GiB by Python driver.

Scratch directory: /scratch1/maxbuskirk/
gradient() will perform analytic gradient computation.

*** tstart() called on skylm001.palmetto.clemson.edu
*** at Thu Feb 17 17:16:34 2022

   => Loading Basis Set <=

    Name: CC-PVDZ
    Role: ORBITAL
    Keyword: BASIS
    atoms 1-6, 14-19  entry C          line   138 file /home/maxbuskirk/.conda/envs/psifour/share/psi4/basis/cc-pvdz.gbs 
    atoms 7-13, 20-27 entry H          line    22 file /home/maxbuskirk/.conda/envs/psifour/share/psi4/basis/cc-pvdz.gbs 


         ---------------------------------------------------------
                                   SCF
               by Justin Turney, Rob Parrish, Andy Simmonett
                          and Daniel G. A. Smith
                              RHF Reference
                        1 Threads,  59127 MiB Core
         ---------------------------------------------------------

  ==> Geometry <==

    Molecular point group: c1
    Full point group: C1

    Geometry (in Angstrom), charge = 1, multiplicity = 1:

       Center              X                  Y                   Z               Mass       
    ------------   -----------------  -----------------  -----------------  -----------------
         C            1.077907759776     0.541020428307    -1.878474830315    12.000000000000
         C            0.722777759776     0.429799428307    -0.411062830315    12.000000000000
         C            1.550148663990     1.311704428307     0.542472169685    12.000000000000
         C            2.814403823259     0.481609428307     0.843861169685    12.000000000000
         C            3.093801823259    -0.293193571693    -0.460425830315    12.000000000000
         C            1.706404823259    -0.558546571693    -1.044572830315    12.000000000000
         H            1.382285823259    -1.585261571693    -1.239058830315     1.007825032230
         H            3.644637823259    -1.229384571693    -0.276963830315     1.007825032230
         H            3.702531823259     0.314463428307    -1.153842830315     1.007825032230
         H            2.579336823259    -0.243151571693     1.643563169685     1.007825032230
         H            3.668392823259     1.091031428307     1.185050169685     1.007825032230
         H            0.979479823259     1.552332428307     1.452805169685     1.007825032230
         H            1.815195823259     2.267570428307     0.054996169685     1.007825032230
         C           -0.650727176741     0.016578428307     0.003385169685    12.000000000000
         C           -0.819943176741    -0.891767571693     1.069482169685    12.000000000000
         C           -2.102210176741    -1.262534571693     1.500807169685    12.000000000000
         C           -3.238824176741    -0.729499571693     0.868850169685    12.000000000000
         C           -3.082804176741     0.175863428307    -0.192843830315    12.000000000000
         C           -1.796987176741     0.547191428307    -0.619069830315    12.000000000000
         H           -1.675583176741     1.259097428307    -1.441873830315     1.007825032230
         H           -3.963570176741     0.595522428307    -0.688723830315     1.007825032230
         H           -4.239727176741    -1.020863571693     1.200828169685     1.007825032230
         H           -2.216332176741    -1.972695571693     2.325667169685     1.007825032230
         H            0.066148823259    -1.317178571693     1.553407169685     1.007825032230
         H            0.317108823259     0.241631428307    -2.604827830315     1.007825032230
         H            1.719294823259     1.373075428307    -2.188284830315     1.007825032230
         H            0.865769193259     1.433514558307    -2.470915760315     1.007825032230

  Running in c1 symmetry.

  Rotational constants: A =      0.07210  B =      0.02011  C =      0.01806 [cm^-1]
  Rotational constants: A =   2161.37328  B =    602.98722  C =    541.52206 [MHz]
  Nuclear repulsion =  681.183305677781391

  Charge       = 1
  Multiplicity = 1
  Electrons    = 86
  Nalpha       = 43
  Nbeta        = 43

  ==> Algorithm <==

  SCF Algorithm Type is DF.
  DIIS enabled.
  MOM disabled.
  Fractional occupation disabled.
  Guess Type is SAD.
  Energy threshold   = 1.00e-10
  Density threshold  = 1.00e-10
  Integral threshold = 1.00e-12

  ==> Primary Basis <==

  Basis Set: CC-PVDZ
    Blend: CC-PVDZ
    Number of shells: 117
    Number of basis functions: 243
    Number of Cartesian functions: 255
    Spherical Harmonics?: true
    Max angular momentum: 2

   => Loading Basis Set <=

    Name: (CC-PVDZ AUX)
    Role: JKFIT
    Keyword: DF_BASIS_SCF
    atoms 1-6, 14-19  entry C          line   121 file /home/maxbuskirk/.conda/envs/psifour/share/psi4/basis/cc-pvdz-jkfit.gbs 
    atoms 7-13, 20-27 entry H          line    51 file /home/maxbuskirk/.conda/envs/psifour/share/psi4/basis/cc-pvdz-jkfit.gbs 

  ==> Integral Setup <==

  DFHelper Memory: AOs need 0.499 GiB; user supplied 43.306 GiB. Using in-core AOs.

  ==> MemDFJK: Density-Fitted J/K Matrices <==

    J tasked:                   Yes
    K tasked:                   Yes
    wK tasked:                   No
    OpenMP threads:               1
    Memory [MiB]:             44345
    Algorithm:                 Core
    Schwarz Cutoff:           1E-12
    Mask sparsity (%):       8.2372
    Fitting Condition:        1E-10

   => Auxiliary Basis Set <=

  Basis Set: (CC-PVDZ AUX)
    Blend: CC-PVDZ-JKFIT
    Number of shells: 423
    Number of basis functions: 1185
    Number of Cartesian functions: 1347
    Spherical Harmonics?: true
    Max angular momentum: 3

  Minimum eigenvalue in the overlap matrix is 3.2615844269E-04.
  Reciprocal condition number of the overlap matrix is 4.5912489989E-05.
    Using symmetric orthogonalization.

  ==> Pre-Iterations <==

  SCF Guess: Superposition of Atomic Densities via on-the-fly atomic UHF (no occupation information).

   -------------------------
    Irrep   Nso     Nmo    
   -------------------------
     A        243     243 
   -------------------------
    Total     243     243
   -------------------------

  ==> Iterations <==

                           Total Energy        Delta E     RMS |[F,P]|

   @DF-RHF iter SAD:  -463.16329411009764   -4.63163e+02   0.00000e+00 
   @DF-RHF iter   1:  -462.53164837778763    6.31646e-01   2.36830e-03 DIIS
   @DF-RHF iter   2:  -462.74565474553458   -2.14006e-01   9.93436e-04 DIIS
   @DF-RHF iter   3:  -462.77765242358066   -3.19977e-02   2.73379e-04 DIIS
   @DF-RHF iter   4:  -462.78112900644521   -3.47658e-03   6.67592e-05 DIIS
   @DF-RHF iter   5:  -462.78130175450889   -1.72748e-04   2.18608e-05 DIIS
   @DF-RHF iter   6:  -462.78132524467338   -2.34902e-05   6.26856e-06 DIIS
   @DF-RHF iter   7:  -462.78132779853962   -2.55387e-06   2.23505e-06 DIIS
   @DF-RHF iter   8:  -462.78132818826788   -3.89728e-07   8.98566e-07 DIIS
   @DF-RHF iter   9:  -462.78132828490180   -9.66339e-08   3.33175e-07 DIIS
   @DF-RHF iter  10:  -462.78132830084166   -1.59399e-08   1.58311e-07 DIIS
   @DF-RHF iter  11:  -462.78132830458355   -3.74189e-09   6.91788e-08 DIIS
   @DF-RHF iter  12:  -462.78132830542700   -8.43443e-10   2.64196e-08 DIIS
   @DF-RHF iter  13:  -462.78132830553557   -1.08571e-10   8.58107e-09 DIIS
   @DF-RHF iter  14:  -462.78132830554517   -9.60654e-12   3.13604e-09 DIIS
   @DF-RHF iter  15:  -462.78132830554392    1.25056e-12   1.05490e-09 DIIS
   @DF-RHF iter  16:  -462.78132830554608   -2.16005e-12   4.86622e-10 DIIS
   @DF-RHF iter  17:  -462.78132830554290    3.18323e-12   1.76729e-10 DIIS
   @DF-RHF iter  18:  -462.78132830554665   -3.75167e-12   8.04536e-11 DIIS
  Energy and wave function converged.


  ==> Post-Iterations <==

    Orbital Energies [Eh]
    ---------------------

    Doubly Occupied:                                                      

       1A    -11.492532     2A    -11.464765     3A    -11.440873  
       4A    -11.395549     5A    -11.391023     6A    -11.387248  
       7A    -11.377143     8A    -11.374994     9A    -11.371046  
      10A    -11.364360    11A    -11.363602    12A    -11.360838  
      13A     -1.407920    14A     -1.274760    15A     -1.249682  
      16A     -1.173946    17A     -1.149632    18A     -1.135015  
      19A     -1.109080    20A     -0.972006    21A     -0.968613  
      22A     -0.950863    23A     -0.916225    24A     -0.875975  
      25A     -0.853747    26A     -0.803522    27A     -0.787417  
      28A     -0.759006    29A     -0.754071    30A     -0.742600  
      31A     -0.721192    32A     -0.704930    33A     -0.677513  
      34A     -0.668793    35A     -0.651803    36A     -0.637935  
      37A     -0.630282    38A     -0.619196    39A     -0.614071  
      40A     -0.608157    41A     -0.582743    42A     -0.457008  
      43A     -0.453215  

    Virtual:                                                              

      44A     -0.071222    45A     -0.025772    46A     -0.000185  
      47A      0.005515    48A      0.025587    49A      0.049848  
      50A      0.073435    51A      0.077170    52A      0.091414  
      53A      0.099584    54A      0.114314    55A      0.120137  
      56A      0.122697    57A      0.136865    58A      0.139601  
      59A      0.154076    60A      0.161774    61A      0.176745  
      62A      0.188281    63A      0.215836    64A      0.216753  
      65A      0.229374    66A      0.259799    67A      0.269813  
      68A      0.305536    69A      0.324419    70A      0.333773  
      71A      0.343420    72A      0.351761    73A      0.365748  
      74A      0.412766    75A      0.426281    76A      0.457264  
      77A      0.467048    78A      0.483905    79A      0.498451  
      80A      0.518613    81A      0.524469    82A      0.535962  
      83A      0.543896    84A      0.564815    85A      0.575009  
      86A      0.580996    87A      0.589723    88A      0.599906  
      89A      0.602716    90A      0.610012    91A      0.615664  
      92A      0.621698    93A      0.633470    94A      0.656798  
      95A      0.666347    96A      0.672179    97A      0.682312  
      98A      0.690170    99A      0.694722   100A      0.700355  
     101A      0.705676   102A      0.713290   103A      0.717326  
     104A      0.741111   105A      0.745424   106A      0.753316  
     107A      0.755238   108A      0.759364   109A      0.764781  
     110A      0.774236   111A      0.778283   112A      0.798344  
     113A      0.800263   114A      0.803346   115A      0.829277  
     116A      0.841912   117A      0.856477   118A      0.879752  
     119A      0.885921   120A      0.970360   121A      0.992908  
     122A      0.999905   123A      1.021313   124A      1.024112  
     125A      1.029952   126A      1.038035   127A      1.070302  
     128A      1.090469   129A      1.117059   130A      1.130602  
     131A      1.138880   132A      1.143231   133A      1.148254  
     134A      1.172342   135A      1.185587   136A      1.205008  
     137A      1.231023   138A      1.256880   139A      1.267007  
     140A      1.285633   141A      1.306860   142A      1.326204  
     143A      1.332923   144A      1.376701   145A      1.396567  
     146A      1.418080   147A      1.440652   148A      1.481045  
     149A      1.490970   150A      1.508356   151A      1.526989  
     152A      1.550268   153A      1.581469   154A      1.588501  
     155A      1.607725   156A      1.629240   157A      1.636086  
     158A      1.642706   159A      1.652994   160A      1.661018  
     161A      1.687583   162A      1.698502   163A      1.708692  
     164A      1.729769   165A      1.740112   166A      1.751978  
     167A      1.758885   168A      1.769579   169A      1.782872  
     170A      1.789949   171A      1.794847   172A      1.805152  
     173A      1.813556   174A      1.820986   175A      1.829059  
     176A      1.831798   177A      1.839964   178A      1.845337  
     179A      1.847865   180A      1.870622   181A      1.878935  
     182A      1.896078   183A      1.899352   184A      1.916165  
     185A      1.933118   186A      1.942769   187A      1.949826  
     188A      1.965492   189A      1.986627   190A      1.994869  
     191A      2.022081   192A      2.028302   193A      2.029008  
     194A      2.041467   195A      2.056615   196A      2.066979  
     197A      2.094670   198A      2.100249   199A      2.117860  
     200A      2.127063   201A      2.131954   202A      2.150023  
     203A      2.166207   204A      2.180281   205A      2.189351  
     206A      2.215208   207A      2.234938   208A      2.245950  
     209A      2.261571   210A      2.284528   211A      2.287339  
     212A      2.315606   213A      2.338055   214A      2.342959  
     215A      2.379915   216A      2.416796   217A      2.439409  
     218A      2.453710   219A      2.516599   220A      2.554544  
     221A      2.565149   222A      2.593269   223A      2.615108  
     224A      2.617673   225A      2.625961   226A      2.633186  
     227A      2.643071   228A      2.649196   229A      2.652911  
     230A      2.712065   231A      2.753509   232A      2.777467  
     233A      2.824294   234A      2.842142   235A      2.855164  
     236A      2.882323   237A      2.945590   238A      2.979853  
     239A      3.035782   240A      3.053376   241A      3.111601  
     242A      3.132439   243A      3.780502  

    Final Occupation by Irrep:
              A 
    DOCC [    43 ]

  @DF-RHF Final Energy:  -462.78132830554665

   => Energetics <=

    Nuclear Repulsion Energy =            681.1833056777813908
    One-Electron Energy =               -1962.5394864234376655
    Two-Electron Energy =                 818.5748524401095665
    Total Energy =                       -462.7813283055467082

Computation Completed


Properties will be evaluated at   0.000000,   0.000000,   0.000000 [a0]

Properties computed using the SCF density matrix

  Nuclear Dipole Moment: [e a0]
     X:     8.1044      Y:     2.5871      Z:    -2.4826

  Electronic Dipole Moment: [e a0]
     X:    -6.4027      Y:    -1.6602      Z:     0.2675

  Dipole Moment: [e a0]
     X:     1.7017      Y:     0.9269      Z:    -2.2150     Total:     2.9430

  Dipole Moment: [D]
     X:     4.3252      Y:     2.3560      Z:    -5.6301     Total:     7.4804


*** tstop() called on skylm001.palmetto.clemson.edu at Thu Feb 17 17:16:56 2022
Module time:
	user time   =      15.57 seconds =       0.26 minutes
	system time =       0.76 seconds =       0.01 minutes
	total time  =         22 seconds =       0.37 minutes
Total time:
	user time   =      15.57 seconds =       0.26 minutes
	system time =       0.76 seconds =       0.01 minutes
	total time  =         22 seconds =       0.37 minutes
 MINTS: Wrapper to libmints.
   by Justin Turney

   Calculation information:
      Number of threads:                 1
      Number of atoms:                  27
      Number of AO shells:             117
      Number of SO shells:             117
      Number of primitives:            339
      Number of atomic orbitals:       255
      Number of basis functions:       243

      Number of irreps:                  1
      Integral cutoff                 1.00e-12
      Number of functions per irrep: [ 243 ]

 OEINTS: Overlap, kinetic, potential, dipole, and quadrupole integrals
         stored in file 35.

      Computing two-electron integrals...done
      Computed 304809738 non-zero two-electron integrals.
        Stored in file 33.


*** tstart() called on skylm001.palmetto.clemson.edu
*** at Thu Feb 17 17:21:26 2022


	Wfn Parameters:
	--------------------
	Wavefunction         = CCSD
	Number of irreps     = 1
	Number of MOs        = 243
	Number of active MOs = 243
	AO-Basis             = NONE
	Semicanonical        = false
	Reference            = RHF
	Print Level          = 1

	IRREP	# MOs	# FZDC	# DOCC	# SOCC	# VIRT	# FZVR
	-----	-----	------	------	------	------	------
	 A	   243	    0	    43	    0	    200	    0
	Transforming integrals...
	IWL integrals will be deleted.
	(OO|OO)...
	Presorting SO-basis two-electron integrals.
	Sorting File: SO Ints (nn|nn) nbuckets = 1
	Constructing frozen core operators
	Starting first half-transformation.
	Sorting half-transformed integrals.
	First half integral transformation complete.
	Starting second half-transformation.
	Two-electron integral transformation complete.
	(OO|OV)...
	Starting second half-transformation.
	Two-electron integral transformation complete.
	(OO|VV)...
	Starting second half-transformation.
	Two-electron integral transformation complete.
	(OV|OO)...
	Starting first half-transformation.
	Sorting half-transformed integrals.
	First half integral transformation complete.
	Starting second half-transformation.
	Two-electron integral transformation complete.
	(OV|OV)...
	Starting second half-transformation.
	Two-electron integral transformation complete.
	(OV|VV)...
	Starting second half-transformation.
	Two-electron integral transformation complete.
	(VV|OO)...
	Starting first half-transformation.
	Sorting half-transformed integrals.
	First half integral transformation complete.
	Starting second half-transformation.
	Two-electron integral transformation complete.
	(VV|OV)...
	Starting second half-transformation.
	Two-electron integral transformation complete.
	(VV|VV)...
	Starting second half-transformation.
	Two-electron integral transformation complete.
	Frozen core energy     =      0.00000000000000

	Size of irrep 0 of <ab|cd> integrals:   1600.000 (MW) /  12800.000 (MB)
	Total:                                  1600.000 (MW) /  12800.000 (MB)

	Size of irrep 0 of <ia|bc> integrals:    344.000 (MW) /   2752.000 (MB)
	Total:                                   344.000 (MW) /   2752.000 (MB)

	Size of irrep 0 of tijab amplitudes:      73.960 (MW) /    591.680 (MB)
	Total:                                    73.960 (MW) /    591.680 (MB)

	Nuclear Rep. energy          =    681.18330567778139
	SCF energy                   =   -462.78132830554665
	One-electron energy          =  -1962.53948636315317
	Two-electron energy          =    818.57424329656067
	Reference energy             =   -462.78193738881100

*** tstop() called on skylm001.palmetto.clemson.edu at Thu Feb 17 17:30:50 2022
Module time:
	user time   =     212.34 seconds =       3.54 minutes
	system time =     104.65 seconds =       1.74 minutes
	total time  =        564 seconds =       9.40 minutes
Total time:
	user time   =     385.07 seconds =       6.42 minutes
	system time =     113.66 seconds =       1.89 minutes
	total time  =        856 seconds =      14.27 minutes
            **************************
            *                        *
            *        CCENERGY        *
            *                        *
            **************************

    Nuclear Rep. energy (wfn)     =  681.183305677781391
    SCF energy          (wfn)     = -462.781328305546651
    Reference energy    (file100) = -462.781937388811002

    Input parameters:
    -----------------
    Wave function   =     CCSD
    Reference wfn   =     RHF
    Brueckner       =     No
    Memory (Mbytes) =     62000.0
    Maxiter         =     50
    R_Convergence   =     1.0e-07
    E_Convergence   =     1.0e-08
    Restart         =     Yes
    DIIS            =     Yes
    AO Basis        =     NONE
    ABCD            =     NEW
    Cache Level     =     2
    Cache Type      =     LOW
    Print Level     =     1
    Num. of threads =     1
    # Amps to Print =     10
    Print MP2 Amps? =     No
    Analyze T2 Amps =     No
    Print Pair Ener =     No
    Local CC        =     No
    SCS-MP2         =     False
    SCSN-MP2        =     False
    SCS-CCSD        =     False

MP2 correlation energy -1.6559540670370736
                Solving CC Amplitude Equations
                ------------------------------
  Iter             Energy              RMS        T1Diag      D1Diag    New D1Diag    D2Diag
  ----     ---------------------    ---------   ----------  ----------  ----------   --------
     0        -1.655954067037074    0.000e+00    0.000000    0.000000    0.000000    0.176050
     1        -1.685823033312156    1.231e-01    0.006776    0.023127    0.023127    0.167345
     2        -1.731332254587931    4.229e-02    0.007038    0.023354    0.023354    0.180826
     3        -1.740896187092318    1.693e-02    0.007940    0.026852    0.026852    0.185149
     4        -1.740953382115308    5.084e-03    0.008027    0.027137    0.027137    0.187201
     5        -1.741137323268711    2.039e-03    0.008060    0.027367    0.027367    0.188190
     6        -1.741165429059287    6.273e-04    0.008058    0.027360    0.027360    0.188412
     7        -1.741146105673899    2.324e-04    0.008056    0.027366    0.027366    0.188475
     8        -1.741142412903231    7.106e-05    0.008056    0.027365    0.027365    0.188492
     9        -1.741145173384528    2.827e-05    0.008056    0.027366    0.027366    0.188495
    10        -1.741143372600828    1.110e-05    0.008056    0.027367    0.027367    0.188496
    11        -1.741143263521956    4.259e-06    0.008056    0.027367    0.027367    0.188496
    12        -1.741143083448015    1.962e-06    0.008056    0.027367    0.027367    0.188496
    13        -1.741143017118796    7.172e-07    0.008056    0.027367    0.027367    0.188496
    14        -1.741143003422063    3.392e-07    0.008056    0.027367    0.027367    0.188496
    15        -1.741142998425299    1.539e-07    0.008056    0.027367    0.027367    0.188496
    16        -1.741142996118857    8.022e-08    0.008056    0.027367    0.027367    0.188496

    Iterations converged.


    Largest TIA Amplitudes:
             41  49        -0.0119031329
             42  42        -0.0115475913
             41  85         0.0101248854
             41  43         0.0093334833
             41  48         0.0081984803
             41  46         0.0081255226
             39  42         0.0081125867
             42  82         0.0080901396
             37  42         0.0076975437
             42  50         0.0071399578

    Largest TIjAb Amplitudes:
     41  41   3   3        -0.0763262854
     42  42   2   2        -0.0751301075
     41  42   2   3         0.0443756003
     42  41   3   2         0.0443756003
     41  41   2   2        -0.0341020671
     42  42   3   3        -0.0318230762
     37  41   3  19         0.0142258548
     41  37  19   3         0.0142258548
     37  42   2  19        -0.0140275008
     42  37  19   2        -0.0140275008

    SCF energy       (wfn)                    = -462.781328305546651
    Reference energy (file100)                = -462.781937388811002

    Opposite-spin MP2 correlation energy      =   -1.225992855563026
    Same-spin MP2 correlation energy          =   -0.429961211474048
    Singles MP2 correlation energy            =   -0.000000000000000
    MP2 correlation energy                    =   -1.655954067037074
      * MP2 total energy                      = -464.437891455848103

    Opposite-spin CCSD correlation energy     =   -1.353327223803962
    Same-spin CCSD correlation energy         =   -0.387815772314896
    Singles CCSD correlation energy           =    0.000000000000000
    CCSD correlation energy                   =   -1.741142996118857
      * CCSD total energy                     = -464.523080384929870


			**************************
			*                        *
			*         CCHBAR         *
			*                        *
			**************************


			**************************
			*        CCLAMBDA        *
			**************************


	Nuclear Rep. energy (wfn)     =  681.183305677781391
	Reference           (wfn)     =                    0
	SCF energy          (wfn)     = -462.781328305546651
	Reference energy    (CC_INFO) = -462.781937388811002
	CCSD energy         (CC_INFO) =   -1.741142996118857
	Total CCSD energy   (CC_INFO) = -464.523080384929870

	Input parameters:
	-----------------
	Maxiter           =     50
	Convergence       = 1.0e-07
	Restart           =     No
	Cache Level       =     2
	Model III         =     No
	DIIS              =     Yes
	AO Basis          =     No
	ABCD              =     NEW
	Local CC          =     No
	Parameters for left-handed eigenvectors:
	    Irr   Root  Ground-State?    EOM energy        R0
	  1   0     0        Yes       0.0000000000   1.0000000000
	Labels for eigenvector 1:
	LIA 0 -1, Lia 0 -1, LIJAB 0 -1, Lijab 0 -1, LIjAb 0 -1, 2LIjAb - LIjbA 0 -1
	Symmetry of left-hand state: A
	Symmetry of left-hand eigenvector: A

	          Solving Lambda Equations
	          ------------------------
	Iter     PseudoEnergy or Norm         RMS  
	----     ---------------------     --------
	   0        -1.741175720718734    0.000e+00
	   1        -1.689011597703326    2.973e-02
	   2        -1.684548810548618    6.533e-03
	   3        -1.683179203767964    2.098e-03
	   4        -1.683176986714271    6.672e-04
	   5        -1.683196329468439    2.613e-04
	   6        -1.683187119282621    9.029e-05
	   7        -1.683186592871491    4.081e-05
	   8        -1.683187295301822    1.606e-05
	   9        -1.683187190356002    7.551e-06
	  10        -1.683187396543539    3.096e-06
	  11        -1.683187293403280    1.252e-06
	  12        -1.683187270375365    4.620e-07
	  13        -1.683187267180425    1.903e-07
	  14        -1.683187265178447    8.374e-08

	Largest LIA Amplitudes:
	         41  49        -0.0095586752
	         42  42        -0.0093012218
	         41  85         0.0080223131
	         41  43         0.0074965327
	         41  48         0.0065725346
	         41  46         0.0065508550
	         39  42         0.0065053725
	         42  82         0.0062793485
	         37  42         0.0061852970
	         42  50         0.0057413849

	Largest LIjAb Amplitudes:
	 41  41   3   3        -0.0720698105
	 42  42   2   2        -0.0707770010
	 41  42   2   3         0.0421620911
	 42  41   3   2         0.0421620911
	 41  41   2   2        -0.0305170952
	 42  42   3   3        -0.0284842717
	 37  41   3  19         0.0135638388
	 41  37  19   3         0.0135638388
	 37  42   2  19        -0.0133728687
	 42  37  19   2        -0.0133728687

	Iterations converged.

	Overlap <L|e^T> =        0.33781091669

			**************************
			*                        *
			*        CCDENSITY       *
			*                        *
			**************************


	Input parameters:
	-----------------
	Wave function    =   CCSD
	Reference wfn    =   RHF
	Dertype          = 1
	Tolerance        = 1.0e-14
	Cache Level      = 2
	AO Basis         = No
	OPDM Only        = No
	Relax OPDM       = Yes
	Compute Xi       = No
	Use Zeta         = No
	Xi connected     = Yes
	Compute NO       = No

	Nuclear Rep. energy (wfn)     =  681.183305677781391
	SCF energy          (wfn)     = -462.781328305546651
	Reference energy    (file100) = -462.781937388811002
	CCSD energy         (CC_INFO) =   -1.741142996118857
	Total CCSD energy   (CC_INFO) = -464.523080384929870
	Number of States = 1

	Ground?  State     EOM Energy       R0
	  Yes     0  A    0.0000000000   1.00000000

	Virial Theorem Data:
	--------------------
	Kinetic energy (ref)   =  462.236958501256424
	Kinetic energy (corr)  =    1.653109032391580
	Kinetic energy (total) =  463.890067533647994
	-V/T (ref)             =    2.001179003274255
	-V/T (corr)            =    2.053253573722186
	-V/T (total)           =    2.001364575134465
    Molecular point group: c1
    Full point group: C1

    Geometry (in Bohr), charge = 1, multiplicity = 1:

       Center              X                  Y                   Z       
    ------------   -----------------  -----------------  -----------------
         C            2.036950454482     1.022380437777    -3.549802962861
         C            1.365852015548     0.812203208378    -0.776796169651
         C            2.929356428685     2.478762127050     1.025123831387
         C            5.318452432400     0.910109918938     1.594666498613
         C            5.846438132401    -0.554055552245    -0.870078720382
         C            3.224637775119    -1.055500048814    -1.973956567390
         H            2.612141633062    -2.995710207713    -2.341481842626
         H            6.887367312444    -2.323200143364    -0.523385785953
         H            6.996771116751     0.594249755972    -2.180446941119
         H            4.874240181267    -0.459489877475     3.105884260594
         H            6.932257756554     2.061750593766     2.239420265632
         H            1.850948611371     2.933483145166     2.745403884354
         H            3.430222970034     4.285087079686     0.103927698654
         C           -1.229696146433     0.031328689090     0.006397043593
         C           -1.549468042479    -1.685196478065     2.021028396765
         C           -3.972601492191    -2.385844564423     2.836114517828
         C           -6.120490662552    -1.378554399139     1.641888864762
         C           -5.825655592458     0.332333714983    -0.364422024280
         C           -3.395813615001     1.034041937697    -1.169872431829
         H           -3.166393304466     2.379349304768    -2.724746646760
         H           -7.490062113073     1.125374291067    -1.301499415372
         H           -8.011923210701    -1.929152561957     2.269236364439
         H           -4.188260817081    -3.727854359404     4.394874009673
         H            0.125003159480    -2.489106758822     2.935514112027
         H            0.599248827925     0.456617222803    -4.922411203266
         H            3.248996344876     2.594736509095    -4.135259013789
         H            1.636066663118     2.708949912056    -4.669354066073

	Presorting MO-basis TPDM.
	Sorting File: MO TPDM (AA|AA) nbuckets = 1
	Starting first half-transformation.
	Sorting half-transformed TPDM.
	First half integral transformation complete.


  -Total gradient:
     Atom            X                  Y                   Z
    ------   -----------------  -----------------  -----------------
       1        0.050010401271     0.042256323982    -0.020925411832
       2       -0.007547516272     0.009771321279    -0.006807068049
       3       -0.005427549118    -0.004217860828     0.000216430279
       4        0.000854794972     0.000475306768    -0.001920847567
       5       -0.009696260137    -0.002843311558     0.000358760522
       6       -0.009107339200     0.002758523772    -0.027108647957
       7        0.001167320816    -0.002492008137     0.011164574691
       8        0.001513719477     0.000352654174     0.002237629195
       9       -0.001351153390     0.001989862376     0.000380616120
      10       -0.000356649762    -0.000141552607    -0.000757012042
      11        0.000661841759     0.000861189942     0.001027804785
      12        0.001287365213    -0.000318041045     0.002403652751
      13       -0.000170043801    -0.002659091982    -0.000893622578
      14        0.015133461907     0.002244170454     0.003911512823
      15       -0.004710826423     0.000282716884     0.000733554029
      16       -0.000919674363    -0.000353001537     0.000557587970
      17       -0.001088624804    -0.001048546691     0.001119894770
      18        0.001357550683    -0.000277708460     0.000253791167
      19       -0.004014384441     0.000797074867    -0.000334971560
      20        0.002558304783    -0.001797915505     0.001066865477
      21       -0.000449357319    -0.000071028096     0.000068831827
      22       -0.000150875186    -0.000208182611     0.000122223294
      23       -0.000623423373    -0.000273528048     0.000218557043
      24        0.000341237653     0.000742875941    -0.001449453376
      25        0.005482242664     0.019062803966     0.009629441593
      26       -0.068423856623    -0.018105138126     0.002727051461
      27        0.033669293012    -0.046787909179     0.021998255171

hessian() using ref_gradient to assess stationary point.

  Based on options and gradient (rms=1.39E-02), recommend projecting translations and not projecting rotations.
hessian() will perform frequency computation by finite difference of analytic gradients.

         ----------------------------------------------------------
                                   FINDIF
                     R. A. King and Jonathon Misiewicz
         ---------------------------------------------------------

  Using finite-differences of gradients to determine vibrational frequencies and 
  normal modes. Resulting frequencies are only valid at stationary points.
    Generating geometries for use with 3-point formula.
    Displacement size will be 5.00e-03.
    Number of atoms is 27.
    Number of irreps is 1.
    Number of SALCs is 78.
    Translations projected? 1. Rotations projected? 0.
    Index of SALCs per irrep:
     1 :  0  1  2  3  4  5  6  7  8  9  10  11  12  13  14  15  16  17  18  19  20  21  22  23  24  25  26  27  28  29  30  31  32  33  34  35  36  37  38  39  40  41  42  43  44  45  46  47  48  49  50  51  52  53  54  55  56  57  58  59  60  61  62  63  64  65  66  67  68  69  70  71  72  73  74  75  76  77 
    Number of SALCs per irrep:
     Irrep 1: 78
    Number of geometries (including reference) is 157.
    Number of displacements per irrep:
      Irrep 1: 156

  //>>>>>>>>>>>>>>>>>>>>>>>>>>>>>>>>>>>//
  //   Loading displacement 1 of 157   //
  //<<<<<<<<<<<<<<<<<<<<<<<<<<<<<<<<<<<//

Scratch directory: /scratch1/maxbuskirk/
gradient() will perform analytic gradient computation.

*** tstart() called on skylm001.palmetto.clemson.edu
*** at Thu Feb 17 22:08:15 2022

   => Loading Basis Set <=

    Name: CC-PVDZ
    Role: ORBITAL
    Keyword: BASIS
    atoms 1-6, 14-19  entry C          line   138 file /home/maxbuskirk/.conda/envs/psifour/share/psi4/basis/cc-pvdz.gbs 
    atoms 7-13, 20-27 entry H          line    22 file /home/maxbuskirk/.conda/envs/psifour/share/psi4/basis/cc-pvdz.gbs 


         ---------------------------------------------------------
                                   SCF
               by Justin Turney, Rob Parrish, Andy Simmonett
                          and Daniel G. A. Smith
                              RHF Reference
                        1 Threads,  59127 MiB Core
         ---------------------------------------------------------

  ==> Geometry <==

    Molecular point group: c1
    Full point group: C1

    Geometry (in Angstrom), charge = 1, multiplicity = 1:

       Center              X                  Y                   Z               Mass       
    ------------   -----------------  -----------------  -----------------  -----------------
         C            1.077907759776     0.541020428307    -1.878474830315    12.000000000000
         C            0.722777759776     0.429799428307    -0.411062830315    12.000000000000
         C            1.550148663990     1.311704428307     0.542472169685    12.000000000000
         C            2.814403823259     0.481609428307     0.843861169685    12.000000000000
         C            3.093801823259    -0.293193571693    -0.460425830315    12.000000000000
         C            1.706404823259    -0.558546571693    -1.044572830315    12.000000000000
         H            1.382285823259    -1.585261571693    -1.239058830315     1.007825032230
         H            3.644637823259    -1.229384571693    -0.276963830315     1.007825032230
         H            3.702531823259     0.314463428307    -1.153842830315     1.007825032230
         H            2.579336823259    -0.243151571693     1.643563169685     1.007825032230
         H            3.668392823259     1.091031428307     1.185050169685     1.007825032230
         H            0.979479823259     1.552332428307     1.452805169685     1.007825032230
         H            1.815195823259     2.267570428307     0.054996169685     1.007825032230
         C           -0.650727176741     0.016578428307     0.003385169685    12.000000000000
         C           -0.819943176741    -0.891767571693     1.069482169685    12.000000000000
         C           -2.102210176741    -1.262534571693     1.500807169685    12.000000000000
         C           -3.238824176741    -0.729499571693     0.868850169685    12.000000000000
         C           -3.082804176741     0.175863428307    -0.192843830315    12.000000000000
         C           -1.796987176741     0.547191428307    -0.619069830315    12.000000000000
         H           -1.675583176741     1.259097428307    -1.441873830315     1.007825032230
         H           -3.963570176741     0.595522428307    -0.688723830315     1.007825032230
         H           -4.239727176741    -1.020863571693     1.200828169685     1.007825032230
         H           -2.216332176741    -1.972695571693     2.325667169685     1.007825032230
         H            0.066148823259    -1.317178571693     1.553407169685     1.007825032230
         H            0.317108823259     0.241631428307    -2.604827830315     1.007825032230
         H            1.719294823259     1.373075428307    -2.188284830315     1.007825032230
         H            0.865769193259     1.433514558307    -2.470915760315     1.007825032230

  Running in c1 symmetry.

  Rotational constants: A =      0.07210  B =      0.02011  C =      0.01806 [cm^-1]
  Rotational constants: A =   2161.37328  B =    602.98722  C =    541.52206 [MHz]
  Nuclear repulsion =  681.183305677781391

  Charge       = 1
  Multiplicity = 1
  Electrons    = 86
  Nalpha       = 43
  Nbeta        = 43

  ==> Algorithm <==

  SCF Algorithm Type is DF.
  DIIS enabled.
  MOM disabled.
  Fractional occupation disabled.
  Guess Type is SAD.
  Energy threshold   = 1.00e-10
  Density threshold  = 1.00e-10
  Integral threshold = 1.00e-12

  ==> Primary Basis <==

  Basis Set: CC-PVDZ
    Blend: CC-PVDZ
    Number of shells: 117
    Number of basis functions: 243
    Number of Cartesian functions: 255
    Spherical Harmonics?: true
    Max angular momentum: 2

   => Loading Basis Set <=

    Name: (CC-PVDZ AUX)
    Role: JKFIT
    Keyword: DF_BASIS_SCF
    atoms 1-6, 14-19  entry C          line   121 file /home/maxbuskirk/.conda/envs/psifour/share/psi4/basis/cc-pvdz-jkfit.gbs 
    atoms 7-13, 20-27 entry H          line    51 file /home/maxbuskirk/.conda/envs/psifour/share/psi4/basis/cc-pvdz-jkfit.gbs 

  ==> Integral Setup <==

  DFHelper Memory: AOs need 0.499 GiB; user supplied 43.306 GiB. Using in-core AOs.

  ==> MemDFJK: Density-Fitted J/K Matrices <==

    J tasked:                   Yes
    K tasked:                   Yes
    wK tasked:                   No
    OpenMP threads:               1
    Memory [MiB]:             44345
    Algorithm:                 Core
    Schwarz Cutoff:           1E-12
    Mask sparsity (%):       8.2372
    Fitting Condition:        1E-10

   => Auxiliary Basis Set <=

  Basis Set: (CC-PVDZ AUX)
    Blend: CC-PVDZ-JKFIT
    Number of shells: 423
    Number of basis functions: 1185
    Number of Cartesian functions: 1347
    Spherical Harmonics?: true
    Max angular momentum: 3

  Minimum eigenvalue in the overlap matrix is 3.2615844269E-04.
  Reciprocal condition number of the overlap matrix is 4.5912489989E-05.
    Using symmetric orthogonalization.

  ==> Pre-Iterations <==

  SCF Guess: Superposition of Atomic Densities via on-the-fly atomic UHF (no occupation information).

   -------------------------
    Irrep   Nso     Nmo    
   -------------------------
     A        243     243 
   -------------------------
    Total     243     243
   -------------------------

  ==> Iterations <==

                           Total Energy        Delta E     RMS |[F,P]|

   @DF-RHF iter SAD:  -463.16329410846629   -4.63163e+02   0.00000e+00 
   @DF-RHF iter   1:  -462.53164837615964    6.31646e-01   2.36830e-03 DIIS
   @DF-RHF iter   2:  -462.74565474390613   -2.14006e-01   9.93436e-04 DIIS
   @DF-RHF iter   3:  -462.77765242194937   -3.19977e-02   2.73379e-04 DIIS
   @DF-RHF iter   4:  -462.78112900481415   -3.47658e-03   6.67592e-05 DIIS
   @DF-RHF iter   5:  -462.78130175287458   -1.72748e-04   2.18608e-05 DIIS
   @DF-RHF iter   6:  -462.78132524304118   -2.34902e-05   6.26856e-06 DIIS
   @DF-RHF iter   7:  -462.78132779690566   -2.55386e-06   2.23505e-06 DIIS
   @DF-RHF iter   8:  -462.78132818663704   -3.89731e-07   8.98566e-07 DIIS
   @DF-RHF iter   9:  -462.78132828327239   -9.66353e-08   3.33175e-07 DIIS
   @DF-RHF iter  10:  -462.78132829921049   -1.59381e-08   1.58311e-07 DIIS
   @DF-RHF iter  11:  -462.78132830294999   -3.73950e-09   6.91788e-08 DIIS
   @DF-RHF iter  12:  -462.78132830379411   -8.44125e-10   2.64196e-08 DIIS
   @DF-RHF iter  13:  -462.78132830390416   -1.10049e-10   8.58107e-09 DIIS
   @DF-RHF iter  14:  -462.78132830391252   -8.35598e-12   3.13604e-09 DIIS
   @DF-RHF iter  15:  -462.78132830391388   -1.36424e-12   1.05490e-09 DIIS
   @DF-RHF iter  16:  -462.78132830391240    1.47793e-12   4.86622e-10 DIIS
   @DF-RHF iter  17:  -462.78132830391087    1.53477e-12   1.76728e-10 DIIS
   @DF-RHF iter  18:  -462.78132830391297   -2.10321e-12   8.04534e-11 DIIS
  Energy and wave function converged.


  ==> Post-Iterations <==

    Orbital Energies [Eh]
    ---------------------

    Doubly Occupied:                                                      

       1A    -11.492532     2A    -11.464765     3A    -11.440873  
       4A    -11.395549     5A    -11.391023     6A    -11.387248  
       7A    -11.377143     8A    -11.374994     9A    -11.371046  
      10A    -11.364360    11A    -11.363602    12A    -11.360838  
      13A     -1.407920    14A     -1.274760    15A     -1.249682  
      16A     -1.173946    17A     -1.149632    18A     -1.135015  
      19A     -1.109080    20A     -0.972006    21A     -0.968613  
      22A     -0.950863    23A     -0.916225    24A     -0.875975  
      25A     -0.853747    26A     -0.803522    27A     -0.787417  
      28A     -0.759006    29A     -0.754071    30A     -0.742600  
      31A     -0.721192    32A     -0.704930    33A     -0.677513  
      34A     -0.668793    35A     -0.651803    36A     -0.637935  
      37A     -0.630282    38A     -0.619196    39A     -0.614071  
      40A     -0.608157    41A     -0.582743    42A     -0.457008  
      43A     -0.453215  

    Virtual:                                                              

      44A     -0.071222    45A     -0.025772    46A     -0.000185  
      47A      0.005515    48A      0.025587    49A      0.049848  
      50A      0.073435    51A      0.077170    52A      0.091414  
      53A      0.099584    54A      0.114314    55A      0.120137  
      56A      0.122697    57A      0.136865    58A      0.139601  
      59A      0.154076    60A      0.161774    61A      0.176745  
      62A      0.188281    63A      0.215836    64A      0.216753  
      65A      0.229374    66A      0.259799    67A      0.269813  
      68A      0.305536    69A      0.324419    70A      0.333773  
      71A      0.343420    72A      0.351761    73A      0.365748  
      74A      0.412766    75A      0.426281    76A      0.457264  
      77A      0.467048    78A      0.483905    79A      0.498451  
      80A      0.518613    81A      0.524469    82A      0.535962  
      83A      0.543896    84A      0.564815    85A      0.575009  
      86A      0.580996    87A      0.589723    88A      0.599906  
      89A      0.602716    90A      0.610012    91A      0.615664  
      92A      0.621698    93A      0.633470    94A      0.656798  
      95A      0.666347    96A      0.672179    97A      0.682312  
      98A      0.690170    99A      0.694722   100A      0.700355  
     101A      0.705676   102A      0.713290   103A      0.717326  
     104A      0.741111   105A      0.745424   106A      0.753316  
     107A      0.755238   108A      0.759364   109A      0.764781  
     110A      0.774236   111A      0.778283   112A      0.798344  
     113A      0.800263   114A      0.803346   115A      0.829277  
     116A      0.841912   117A      0.856477   118A      0.879752  
     119A      0.885921   120A      0.970360   121A      0.992908  
     122A      0.999905   123A      1.021313   124A      1.024112  
     125A      1.029952   126A      1.038035   127A      1.070302  
     128A      1.090469   129A      1.117059   130A      1.130602  
     131A      1.138880   132A      1.143231   133A      1.148254  
     134A      1.172342   135A      1.185587   136A      1.205008  
     137A      1.231023   138A      1.256880   139A      1.267007  
     140A      1.285633   141A      1.306860   142A      1.326204  
     143A      1.332923   144A      1.376701   145A      1.396567  
     146A      1.418080   147A      1.440652   148A      1.481045  
     149A      1.490970   150A      1.508356   151A      1.526989  
     152A      1.550268   153A      1.581469   154A      1.588501  
     155A      1.607725   156A      1.629240   157A      1.636086  
     158A      1.642706   159A      1.652994   160A      1.661018  
     161A      1.687583   162A      1.698502   163A      1.708692  
     164A      1.729769   165A      1.740112   166A      1.751978  
     167A      1.758885   168A      1.769579   169A      1.782872  
     170A      1.789949   171A      1.794847   172A      1.805152  
     173A      1.813556   174A      1.820986   175A      1.829059  
     176A      1.831798   177A      1.839964   178A      1.845337  
     179A      1.847865   180A      1.870622   181A      1.878935  
     182A      1.896078   183A      1.899352   184A      1.916165  
     185A      1.933118   186A      1.942769   187A      1.949826  
     188A      1.965492   189A      1.986627   190A      1.994869  
     191A      2.022081   192A      2.028302   193A      2.029008  
     194A      2.041467   195A      2.056615   196A      2.066979  
     197A      2.094670   198A      2.100249   199A      2.117860  
     200A      2.127063   201A      2.131954   202A      2.150023  
     203A      2.166207   204A      2.180281   205A      2.189351  
     206A      2.215208   207A      2.234938   208A      2.245950  
     209A      2.261571   210A      2.284528   211A      2.287339  
     212A      2.315606   213A      2.338055   214A      2.342959  
     215A      2.379915   216A      2.416796   217A      2.439409  
     218A      2.453710   219A      2.516599   220A      2.554544  
     221A      2.565149   222A      2.593269   223A      2.615108  
     224A      2.617673   225A      2.625961   226A      2.633186  
     227A      2.643071   228A      2.649196   229A      2.652911  
     230A      2.712065   231A      2.753509   232A      2.777467  
     233A      2.824294   234A      2.842142   235A      2.855164  
     236A      2.882323   237A      2.945590   238A      2.979853  
     239A      3.035782   240A      3.053376   241A      3.111601  
     242A      3.132439   243A      3.780502  

    Final Occupation by Irrep:
              A 
    DOCC [    43 ]

  @DF-RHF Final Energy:  -462.78132830391297

   => Energetics <=

    Nuclear Repulsion Energy =            681.1833056777813908
    One-Electron Energy =               -1962.5394864227425842
    Two-Electron Energy =                 818.5748524410481650
    Total Energy =                       -462.7813283039130283

Computation Completed


Properties will be evaluated at   0.000000,   0.000000,   0.000000 [a0]

Properties computed using the SCF density matrix

  Nuclear Dipole Moment: [e a0]
     X:     8.1044      Y:     2.5871      Z:    -2.4826

  Electronic Dipole Moment: [e a0]
     X:    -6.4027      Y:    -1.6602      Z:     0.2675

  Dipole Moment: [e a0]
     X:     1.7017      Y:     0.9269      Z:    -2.2150     Total:     2.9430

  Dipole Moment: [D]
     X:     4.3252      Y:     2.3560      Z:    -5.6301     Total:     7.4804


*** tstop() called on skylm001.palmetto.clemson.edu at Thu Feb 17 22:08:34 2022
Module time:
	user time   =      15.35 seconds =       0.26 minutes
	system time =       0.71 seconds =       0.01 minutes
	total time  =         19 seconds =       0.32 minutes
Total time:
	user time   =   10482.18 seconds =     174.70 minutes
	system time =    2371.99 seconds =      39.53 minutes
	total time  =      17520 seconds =     292.00 minutes
 MINTS: Wrapper to libmints.
   by Justin Turney

   Calculation information:
      Number of threads:                 1
      Number of atoms:                  27
      Number of AO shells:             117
      Number of SO shells:             117
      Number of primitives:            339
      Number of atomic orbitals:       255
      Number of basis functions:       243

      Number of irreps:                  1
      Integral cutoff                 1.00e-12
      Number of functions per irrep: [ 243 ]

 OEINTS: Overlap, kinetic, potential, dipole, and quadrupole integrals
         stored in file 35.

      Computing two-electron integrals...done
      Computed 304809738 non-zero two-electron integrals.
        Stored in file 33.


*** tstart() called on skylm001.palmetto.clemson.edu
*** at Thu Feb 17 22:13:20 2022


	Wfn Parameters:
	--------------------
	Wavefunction         = CCSD
	Number of irreps     = 1
	Number of MOs        = 243
	Number of active MOs = 243
	AO-Basis             = NONE
	Semicanonical        = false
	Reference            = RHF
	Print Level          = 1

	IRREP	# MOs	# FZDC	# DOCC	# SOCC	# VIRT	# FZVR
	-----	-----	------	------	------	------	------
	 A	   243	    0	    43	    0	    200	    0
	Transforming integrals...
	IWL integrals will be deleted.
	(OO|OO)...
	Presorting SO-basis two-electron integrals.
	Sorting File: SO Ints (nn|nn) nbuckets = 1
	Constructing frozen core operators
	Starting first half-transformation.
	Sorting half-transformed integrals.
	First half integral transformation complete.
	Starting second half-transformation.
	Two-electron integral transformation complete.
	(OO|OV)...
	Starting second half-transformation.
	Two-electron integral transformation complete.
	(OO|VV)...
	Starting second half-transformation.
	Two-electron integral transformation complete.
	(OV|OO)...
	Starting first half-transformation.
	Sorting half-transformed integrals.
	First half integral transformation complete.
	Starting second half-transformation.
	Two-electron integral transformation complete.
	(OV|OV)...
	Starting second half-transformation.
	Two-electron integral transformation complete.
	(OV|VV)...
	Starting second half-transformation.
	Two-electron integral transformation complete.
	(VV|OO)...
	Starting first half-transformation.
	Sorting half-transformed integrals.
	First half integral transformation complete.
	Starting second half-transformation.
	Two-electron integral transformation complete.
	(VV|OV)...
	Starting second half-transformation.
	Two-electron integral transformation complete.
	(VV|VV)...
	Starting second half-transformation.
	Two-electron integral transformation complete.
	Frozen core energy     =      0.00000000000000

	Size of irrep 0 of <ab|cd> integrals:   1600.000 (MW) /  12800.000 (MB)
	Total:                                  1600.000 (MW) /  12800.000 (MB)

	Size of irrep 0 of <ia|bc> integrals:    344.000 (MW) /   2752.000 (MB)
	Total:                                   344.000 (MW) /   2752.000 (MB)

	Size of irrep 0 of tijab amplitudes:      73.960 (MW) /    591.680 (MB)
	Total:                                    73.960 (MW) /    591.680 (MB)

	Nuclear Rep. energy          =    681.18330567778139
	SCF energy                   =   -462.78132830391297
	One-electron energy          =  -1962.53948636246014
	Two-electron energy          =    818.57424329586877
	Reference energy             =   -462.78193738881009

*** tstop() called on skylm001.palmetto.clemson.edu at Thu Feb 17 22:22:08 2022
Module time:
	user time   =     210.87 seconds =       3.51 minutes
	system time =     102.69 seconds =       1.71 minutes
	total time  =        528 seconds =       8.80 minutes
Total time:
	user time   =   10848.30 seconds =     180.80 minutes
	system time =    2483.57 seconds =      41.39 minutes
	total time  =      18334 seconds =     305.57 minutes
            **************************
            *                        *
            *        CCENERGY        *
            *                        *
            **************************

    Nuclear Rep. energy (wfn)     =  681.183305677781391
    SCF energy          (wfn)     = -462.781328303912971
    Reference energy    (file100) = -462.781937388810093

    Input parameters:
    -----------------
    Wave function   =     CCSD
    Reference wfn   =     RHF
    Brueckner       =     No
    Memory (Mbytes) =     62000.0
    Maxiter         =     50
    R_Convergence   =     1.0e-07
    E_Convergence   =     1.0e-08
    Restart         =     Yes
    DIIS            =     Yes
    AO Basis        =     NONE
    ABCD            =     NEW
    Cache Level     =     2
    Cache Type      =     LOW
    Print Level     =     1
    Num. of threads =     1
    # Amps to Print =     10
    Print MP2 Amps? =     No
    Analyze T2 Amps =     No
    Print Pair Ener =     No
    Local CC        =     No
    SCS-MP2         =     False
    SCSN-MP2        =     False
    SCS-CCSD        =     False

MP2 correlation energy -1.6559540670354029
                Solving CC Amplitude Equations
                ------------------------------
  Iter             Energy              RMS        T1Diag      D1Diag    New D1Diag    D2Diag
  ----     ---------------------    ---------   ----------  ----------  ----------   --------
     0        -1.655954067035403    0.000e+00    0.000000    0.000000    0.000000    0.176050
     1        -1.685823033311052    1.231e-01    0.006776    0.023127    0.023127    0.167345
     2        -1.731332254586932    4.229e-02    0.007038    0.023354    0.023354    0.180826
     3        -1.740896187091128    1.693e-02    0.007940    0.026852    0.026852    0.185149
     4        -1.740953382113873    5.084e-03    0.008027    0.027137    0.027137    0.187201
     5        -1.741137323268087    2.039e-03    0.008060    0.027367    0.027367    0.188190
     6        -1.741165429058272    6.273e-04    0.008058    0.027360    0.027360    0.188412
     7        -1.741146105673063    2.324e-04    0.008056    0.027366    0.027366    0.188475
     8        -1.741142412901712    7.106e-05    0.008056    0.027365    0.027365    0.188492
     9        -1.741145173383392    2.827e-05    0.008056    0.027366    0.027366    0.188495
    10        -1.741143372599583    1.110e-05    0.008056    0.027367    0.027367    0.188496
    11        -1.741143263520138    4.259e-06    0.008056    0.027367    0.027367    0.188496
    12        -1.741143083446686    1.962e-06    0.008056    0.027367    0.027367    0.188496
    13        -1.741143017118298    7.172e-07    0.008056    0.027367    0.027367    0.188496
    14        -1.741143003420780    3.392e-07    0.008056    0.027367    0.027367    0.188496
    15        -1.741142998424480    1.539e-07    0.008056    0.027367    0.027367    0.188496
    16        -1.741142996118131    8.022e-08    0.008056    0.027367    0.027367    0.188496

    Iterations converged.


    Largest TIA Amplitudes:
             41  49        -0.0119031329
             42  42        -0.0115475913
             41  85         0.0101248854
             41  43         0.0093334833
             41  48         0.0081984803
             41  46         0.0081255226
             39  42         0.0081125867
             42  82         0.0080901396
             37  42         0.0076975436
             42  50         0.0071399578

    Largest TIjAb Amplitudes:
     41  41   3   3        -0.0763262854
     42  42   2   2        -0.0751301076
     41  42   2   3         0.0443756003
     42  41   3   2         0.0443756003
     41  41   2   2        -0.0341020671
     42  42   3   3        -0.0318230762
     37  41   3  19         0.0142258548
     41  37  19   3         0.0142258548
     37  42   2  19        -0.0140275009
     42  37  19   2        -0.0140275009

    SCF energy       (wfn)                    = -462.781328303912971
    Reference energy (file100)                = -462.781937388810093

    Opposite-spin MP2 correlation energy      =   -1.225992855562240
    Same-spin MP2 correlation energy          =   -0.429961211473163
    Singles MP2 correlation energy            =   -0.000000000000000
    MP2 correlation energy                    =   -1.655954067035403
      * MP2 total energy                      = -464.437891455845488

    Opposite-spin CCSD correlation energy     =   -1.353327223802774
    Same-spin CCSD correlation energy         =   -0.387815772315356
    Singles CCSD correlation energy           =    0.000000000000000
    CCSD correlation energy                   =   -1.741142996118131
      * CCSD total energy                     = -464.523080384928221


			**************************
			*                        *
			*         CCHBAR         *
			*                        *
			**************************


			**************************
			*        CCLAMBDA        *
			**************************


	Nuclear Rep. energy (wfn)     =  681.183305677781391
	Reference           (wfn)     =                    0
	SCF energy          (wfn)     = -462.781328303912971
	Reference energy    (CC_INFO) = -462.781937388810093
	CCSD energy         (CC_INFO) =   -1.741142996118131
	Total CCSD energy   (CC_INFO) = -464.523080384928221

	Input parameters:
	-----------------
	Maxiter           =     50
	Convergence       = 1.0e-07
	Restart           =     No
	Cache Level       =     2
	Model III         =     No
	DIIS              =     Yes
	AO Basis          =     No
	ABCD              =     NEW
	Local CC          =     No
	Parameters for left-handed eigenvectors:
	    Irr   Root  Ground-State?    EOM energy        R0
	  1   0     0        Yes       0.0000000000   1.0000000000
	Labels for eigenvector 1:
	LIA 0 -1, Lia 0 -1, LIJAB 0 -1, Lijab 0 -1, LIjAb 0 -1, 2LIjAb - LIjbA 0 -1
	Symmetry of left-hand state: A
	Symmetry of left-hand eigenvector: A

	          Solving Lambda Equations
	          ------------------------
	Iter     PseudoEnergy or Norm         RMS  
	----     ---------------------     --------
	   0        -1.741175720718450    8.374e-08
	   1        -1.689011597702566    2.973e-02
	   2        -1.684548810547873    6.533e-03
	   3        -1.683179203766749    2.098e-03
	   4        -1.683176986712994    6.672e-04
	   5        -1.683196329468619    2.613e-04
	   6        -1.683187119281910    9.029e-05
	   7        -1.683186592869824    4.081e-05
	   8        -1.683187295300998    1.606e-05
	   9        -1.683187190355755    7.551e-06
	  10        -1.683187396541794    3.096e-06
	  11        -1.683187293402339    1.252e-06
	  12        -1.683187270374242    4.620e-07
	  13        -1.683187267179913    1.903e-07
	  14        -1.683187265177173    8.374e-08

	Largest LIA Amplitudes:
	         41  49        -0.0095586752
	         42  42        -0.0093012218
	         41  85         0.0080223131
	         41  43         0.0074965327
	         41  48         0.0065725345
	         41  46         0.0065508550
	         39  42         0.0065053726
	         42  82         0.0062793485
	         37  42         0.0061852970
	         42  50         0.0057413849

	Largest LIjAb Amplitudes:
	 41  41   3   3        -0.0720698105
	 42  42   2   2        -0.0707770010
	 41  42   2   3         0.0421620911
	 42  41   3   2         0.0421620911
	 41  41   2   2        -0.0305170952
	 42  42   3   3        -0.0284842717
	 37  41   3  19         0.0135638389
	 41  37  19   3         0.0135638389
	 37  42   2  19        -0.0133728687
	 42  37  19   2        -0.0133728687

	Iterations converged.

	Overlap <L|e^T> =        0.33781091669

			**************************
			*                        *
			*        CCDENSITY       *
			*                        *
			**************************


	Input parameters:
	-----------------
	Wave function    =   CCSD
	Reference wfn    =   RHF
	Dertype          = 1
	Tolerance        = 1.0e-14
	Cache Level      = 2
	AO Basis         = No
	OPDM Only        = No
	Relax OPDM       = Yes
	Compute Xi       = No
	Use Zeta         = No
	Xi connected     = Yes
	Compute NO       = No

	Nuclear Rep. energy (wfn)     =  681.183305677781391
	SCF energy          (wfn)     = -462.781328303912971
	Reference energy    (file100) = -462.781937388810093
	CCSD energy         (CC_INFO) =   -1.741142996118131
	Total CCSD energy   (CC_INFO) = -464.523080384928221
	Number of States = 1

	Ground?  State     EOM Energy       R0
	  Yes     0  A    0.0000000000   1.00000000

	Virial Theorem Data:
	--------------------
	Kinetic energy (ref)   =  462.236958501182926
	Kinetic energy (corr)  =    1.653109032391155
	Kinetic energy (total) =  463.890067533574097
	-V/T (ref)             =    2.001179003274412
	-V/T (corr)            =    2.053253573722018
	-V/T (total)           =    2.001364575134621
    Molecular point group: c1
    Full point group: C1

    Geometry (in Bohr), charge = 1, multiplicity = 1:

       Center              X                  Y                   Z       
    ------------   -----------------  -----------------  -----------------
         C            2.036950454482     1.022380437777    -3.549802962861
         C            1.365852015548     0.812203208378    -0.776796169651
         C            2.929356428685     2.478762127050     1.025123831387
         C            5.318452432400     0.910109918938     1.594666498613
         C            5.846438132401    -0.554055552245    -0.870078720382
         C            3.224637775119    -1.055500048814    -1.973956567390
         H            2.612141633062    -2.995710207713    -2.341481842626
         H            6.887367312444    -2.323200143364    -0.523385785953
         H            6.996771116751     0.594249755972    -2.180446941119
         H            4.874240181267    -0.459489877475     3.105884260594
         H            6.932257756554     2.061750593766     2.239420265632
         H            1.850948611371     2.933483145166     2.745403884354
         H            3.430222970034     4.285087079686     0.103927698654
         C           -1.229696146433     0.031328689090     0.006397043593
         C           -1.549468042479    -1.685196478065     2.021028396765
         C           -3.972601492191    -2.385844564423     2.836114517828
         C           -6.120490662552    -1.378554399139     1.641888864762
         C           -5.825655592458     0.332333714983    -0.364422024280
         C           -3.395813615001     1.034041937697    -1.169872431829
         H           -3.166393304466     2.379349304768    -2.724746646760
         H           -7.490062113073     1.125374291067    -1.301499415372
         H           -8.011923210701    -1.929152561957     2.269236364439
         H           -4.188260817081    -3.727854359404     4.394874009673
         H            0.125003159480    -2.489106758822     2.935514112027
         H            0.599248827925     0.456617222803    -4.922411203266
         H            3.248996344876     2.594736509095    -4.135259013789
         H            1.636066663118     2.708949912056    -4.669354066073

	Presorting MO-basis TPDM.
	Sorting File: MO TPDM (AA|AA) nbuckets = 1
	Starting first half-transformation.
	Sorting half-transformed TPDM.
	First half integral transformation complete.


  -Total gradient:
     Atom            X                  Y                   Z
    ------   -----------------  -----------------  -----------------
       1        0.050010401279     0.042256323973    -0.020925411821
       2       -0.007547516270     0.009771321279    -0.006807068052
       3       -0.005427549117    -0.004217860835     0.000216430275
       4        0.000854794969     0.000475306765    -0.001920847576
       5       -0.009696260141    -0.002843311557     0.000358760521
       6       -0.009107339199     0.002758523783    -0.027108647958
       7        0.001167320813    -0.002492008145     0.011164574691
       8        0.001513719478     0.000352654174     0.002237629196
       9       -0.001351153389     0.001989862377     0.000380616119
      10       -0.000356649763    -0.000141552610    -0.000757012036
      11        0.000661841763     0.000861189944     0.001027804787
      12        0.001287365208    -0.000318041044     0.002403652759
      13       -0.000170043799    -0.002659091975    -0.000893622581
      14        0.015133461917     0.002244170456     0.003911512817
      15       -0.004710826427     0.000282716885     0.000733554032
      16       -0.000919674361    -0.000353001537     0.000557587971
      17       -0.001088624806    -0.001048546693     0.001119894772
      18        0.001357550685    -0.000277708459     0.000253791165
      19       -0.004014384441     0.000797074864    -0.000334971558
      20        0.002558304783    -0.001797915496     0.001066865469
      21       -0.000449357328    -0.000071028092     0.000068831822
      22       -0.000150875193    -0.000208182613     0.000122223296
      23       -0.000623423375    -0.000273528054     0.000218557048
      24        0.000341237662     0.000742875935    -0.001449453371
      25        0.005482242659     0.019062803965     0.009629441591
      26       -0.068423856618    -0.018105138121     0.002727051461
      27        0.033669293008    -0.046787909176     0.021998255167


  //>>>>>>>>>>>>>>>>>>>>>>>>>>>>>>>>>>>//
  //   Loading displacement 2 of 157   //
  //<<<<<<<<<<<<<<<<<<<<<<<<<<<<<<<<<<<//

Scratch directory: /scratch1/maxbuskirk/
gradient() will perform analytic gradient computation.

*** tstart() called on skylm001.palmetto.clemson.edu
*** at Fri Feb 18 02:58:20 2022

   => Loading Basis Set <=

    Name: CC-PVDZ
    Role: ORBITAL
    Keyword: BASIS
    atoms 1-6, 14-19  entry C          line   138 file /home/maxbuskirk/.conda/envs/psifour/share/psi4/basis/cc-pvdz.gbs 
    atoms 7-13, 20-27 entry H          line    22 file /home/maxbuskirk/.conda/envs/psifour/share/psi4/basis/cc-pvdz.gbs 


         ---------------------------------------------------------
                                   SCF
               by Justin Turney, Rob Parrish, Andy Simmonett
                          and Daniel G. A. Smith
                              RHF Reference
                        1 Threads,  59127 MiB Core
         ---------------------------------------------------------

  ==> Geometry <==

    Molecular point group: c1
    Full point group: C1

    Geometry (in Angstrom), charge = 1, multiplicity = 1:

       Center              X                  Y                   Z               Mass       
    ------------   -----------------  -----------------  -----------------  -----------------
         C            1.077173324218     0.541020428307    -1.878474830315    12.000000000000
         C            0.722837665865     0.429799428307    -0.411062830315    12.000000000000
         C            1.550208570079     1.311704428307     0.542472169685    12.000000000000
         C            2.814463729348     0.481609428307     0.843861169685    12.000000000000
         C            3.093861729348    -0.293193571693    -0.460425830315    12.000000000000
         C            1.706464729348    -0.558546571693    -1.044572830315    12.000000000000
         H            1.382345729348    -1.585261571693    -1.239058830315     1.007825032230
         H            3.644697729348    -1.229384571693    -0.276963830315     1.007825032230
         H            3.702591729348     0.314463428307    -1.153842830315     1.007825032230
         H            2.579396729348    -0.243151571693     1.643563169685     1.007825032230
         H            3.668452729348     1.091031428307     1.185050169685     1.007825032230
         H            0.979539729348     1.552332428307     1.452805169685     1.007825032230
         H            1.815255729348     2.267570428307     0.054996169685     1.007825032230
         C           -0.650667270652     0.016578428307     0.003385169685    12.000000000000
         C           -0.819883270652    -0.891767571693     1.069482169685    12.000000000000
         C           -2.102150270652    -1.262534571693     1.500807169685    12.000000000000
         C           -3.238764270652    -0.729499571693     0.868850169685    12.000000000000
         C           -3.082744270652     0.175863428307    -0.192843830315    12.000000000000
         C           -1.796927270652     0.547191428307    -0.619069830315    12.000000000000
         H           -1.675523270652     1.259097428307    -1.441873830315     1.007825032230
         H           -3.963510270652     0.595522428307    -0.688723830315     1.007825032230
         H           -4.239667270652    -1.020863571693     1.200828169685     1.007825032230
         H           -2.216272270652    -1.972695571693     2.325667169685     1.007825032230
         H            0.066208729348    -1.317178571693     1.553407169685     1.007825032230
         H            0.317168729348     0.241631428307    -2.604827830315     1.007825032230
         H            1.719354729348     1.373075428307    -2.188284830315     1.007825032230
         H            0.865829099348     1.433514558307    -2.470915760315     1.007825032230

  Running in c1 symmetry.

  Rotational constants: A =      0.07209  B =      0.02011  C =      0.01806 [cm^-1]
  Rotational constants: A =   2161.31423  B =    603.00690  C =    541.53373 [MHz]
  Nuclear repulsion =  681.184500488285039

  Charge       = 1
  Multiplicity = 1
  Electrons    = 86
  Nalpha       = 43
  Nbeta        = 43

  ==> Algorithm <==

  SCF Algorithm Type is DF.
  DIIS enabled.
  MOM disabled.
  Fractional occupation disabled.
  Guess Type is SAD.
  Energy threshold   = 1.00e-10
  Density threshold  = 1.00e-10
  Integral threshold = 1.00e-12

  ==> Primary Basis <==

  Basis Set: CC-PVDZ
    Blend: CC-PVDZ
    Number of shells: 117
    Number of basis functions: 243
    Number of Cartesian functions: 255
    Spherical Harmonics?: true
    Max angular momentum: 2

   => Loading Basis Set <=

    Name: (CC-PVDZ AUX)
    Role: JKFIT
    Keyword: DF_BASIS_SCF
    atoms 1-6, 14-19  entry C          line   121 file /home/maxbuskirk/.conda/envs/psifour/share/psi4/basis/cc-pvdz-jkfit.gbs 
    atoms 7-13, 20-27 entry H          line    51 file /home/maxbuskirk/.conda/envs/psifour/share/psi4/basis/cc-pvdz-jkfit.gbs 

  ==> Integral Setup <==

  DFHelper Memory: AOs need 0.499 GiB; user supplied 43.306 GiB. Using in-core AOs.

  ==> MemDFJK: Density-Fitted J/K Matrices <==

    J tasked:                   Yes
    K tasked:                   Yes
    wK tasked:                   No
    OpenMP threads:               1
    Memory [MiB]:             44345
    Algorithm:                 Core
    Schwarz Cutoff:           1E-12
    Mask sparsity (%):       8.2372
    Fitting Condition:        1E-10

   => Auxiliary Basis Set <=

  Basis Set: (CC-PVDZ AUX)
    Blend: CC-PVDZ-JKFIT
    Number of shells: 423
    Number of basis functions: 1185
    Number of Cartesian functions: 1347
    Spherical Harmonics?: true
    Max angular momentum: 3

  Minimum eigenvalue in the overlap matrix is 3.2615787940E-04.
  Reciprocal condition number of the overlap matrix is 4.5913284201E-05.
    Using symmetric orthogonalization.

  ==> Pre-Iterations <==

  SCF Guess: Superposition of Atomic Densities via on-the-fly atomic UHF (no occupation information).

   -------------------------
    Irrep   Nso     Nmo    
   -------------------------
     A        243     243 
   -------------------------
    Total     243     243
   -------------------------

  ==> Iterations <==

                           Total Energy        Delta E     RMS |[F,P]|

   @DF-RHF iter SAD:  -463.16317816848664   -4.63163e+02   0.00000e+00 
   @DF-RHF iter   1:  -462.53174804117396    6.31430e-01   2.36820e-03 DIIS
   @DF-RHF iter   2:  -462.74575141905501   -2.14003e-01   9.93282e-04 DIIS
   @DF-RHF iter   3:  -462.77774075645482   -3.19893e-02   2.73376e-04 DIIS
   @DF-RHF iter   4:  -462.78121715976118   -3.47640e-03   6.67653e-05 DIIS
   @DF-RHF iter   5:  -462.78138993024999   -1.72770e-04   2.18597e-05 DIIS
   @DF-RHF iter   6:  -462.78141341964158   -2.34894e-05   6.26990e-06 DIIS
   @DF-RHF iter   7:  -462.78141597431033   -2.55467e-06   2.23545e-06 DIIS
   @DF-RHF iter   8:  -462.78141636427330   -3.89963e-07   8.98770e-07 DIIS
   @DF-RHF iter   9:  -462.78141646094400   -9.66707e-08   3.33207e-07 DIIS
   @DF-RHF iter  10:  -462.78141647688153   -1.59375e-08   1.58270e-07 DIIS
   @DF-RHF iter  11:  -462.78141648062092   -3.73939e-09   6.91804e-08 DIIS
   @DF-RHF iter  12:  -462.78141648146402   -8.43102e-10   2.64289e-08 DIIS
   @DF-RHF iter  13:  -462.78141648157384   -1.09821e-10   8.57563e-09 DIIS
   @DF-RHF iter  14:  -462.78141648158510   -1.12550e-11   3.12695e-09 DIIS
   @DF-RHF iter  15:  -462.78141648158169    3.41061e-12   1.05125e-09 DIIS
   @DF-RHF iter  16:  -462.78141648158419   -2.50111e-12   4.85692e-10 DIIS
   @DF-RHF iter  17:  -462.78141648158282    1.36424e-12   1.76729e-10 DIIS
   @DF-RHF iter  18:  -462.78141648158470   -1.87583e-12   8.05365e-11 DIIS
  Energy and wave function converged.


  ==> Post-Iterations <==

    Orbital Energies [Eh]
    ---------------------

    Doubly Occupied:                                                      

       1A    -11.492504     2A    -11.464787     3A    -11.440870  
       4A    -11.395571     5A    -11.391042     6A    -11.387232  
       7A    -11.377158     8A    -11.374985     9A    -11.371036  
      10A    -11.364353    11A    -11.363594    12A    -11.360830  
      13A     -1.407897    14A     -1.274748    15A     -1.249686  
      16A     -1.173946    17A     -1.149607    18A     -1.135008  
      19A     -1.109084    20A     -0.971998    21A     -0.968630  
      22A     -0.950859    23A     -0.916255    24A     -0.876007  
      25A     -0.853742    26A     -0.803522    27A     -0.787467  
      28A     -0.759022    29A     -0.754055    30A     -0.742586  
      31A     -0.721189    32A     -0.704923    33A     -0.677524  
      34A     -0.668792    35A     -0.651799    36A     -0.637958  
      37A     -0.630302    38A     -0.619198    39A     -0.614058  
      40A     -0.608159    41A     -0.582780    42A     -0.457001  
      43A     -0.453208  

    Virtual:                                                              

      44A     -0.071148    45A     -0.025804    46A     -0.000181  
      47A      0.005523    48A      0.025622    49A      0.049847  
      50A      0.073463    51A      0.077185    52A      0.091405  
      53A      0.099572    54A      0.114315    55A      0.120144  
      56A      0.122692    57A      0.136859    58A      0.139599  
      59A      0.154070    60A      0.161776    61A      0.176773  
      62A      0.188262    63A      0.215832    64A      0.216758  
      65A      0.229361    66A      0.259802    67A      0.269784  
      68A      0.305544    69A      0.324416    70A      0.333764  
      71A      0.343399    72A      0.351724    73A      0.365742  
      74A      0.412834    75A      0.426291    76A      0.457260  
      77A      0.467070    78A      0.483941    79A      0.498454  
      80A      0.518577    81A      0.524444    82A      0.535960  
      83A      0.543891    84A      0.564837    85A      0.575010  
      86A      0.581001    87A      0.589725    88A      0.599890  
[...]
   @DF-RHF iter  18:  -462.78132685172523   -1.08002e-12   7.98609e-11 DIIS
  Energy and wave function converged.


  ==> Post-Iterations <==

    Orbital Energies [Eh]
    ---------------------

    Doubly Occupied:                                                      

       1A    -11.492543     2A    -11.464762     3A    -11.440822  
       4A    -11.395556     5A    -11.391050     6A    -11.387263  
       7A    -11.377142     8A    -11.374978     9A    -11.371044  
      10A    -11.364352    11A    -11.363600    12A    -11.360827  
      13A     -1.408050    14A     -1.274746    15A     -1.249681  
      16A     -1.173932    17A     -1.149645    18A     -1.135008  
      19A     -1.109066    20A     -0.971981    21A     -0.968622  
      22A     -0.950850    23A     -0.916287    24A     -0.876005  
      25A     -0.853763    26A     -0.803499    27A     -0.787404  
      28A     -0.759022    29A     -0.754064    30A     -0.742595  
      31A     -0.721187    32A     -0.704924    33A     -0.677397  
      34A     -0.668792    35A     -0.651832    36A     -0.637969  
      37A     -0.630285    38A     -0.619218    39A     -0.614069  
      40A     -0.608108    41A     -0.582826    42A     -0.457002  
      43A     -0.453204  

    Virtual:                                                              

      44A     -0.071248    45A     -0.025782    46A     -0.000165  
      47A      0.005528    48A      0.025569    49A      0.049878  
      50A      0.073468    51A      0.077190    52A      0.091408  
      53A      0.099583    54A      0.114310    55A      0.120147  
      56A      0.122713    57A      0.136863    58A      0.139621  
      59A      0.154061    60A      0.161785    61A      0.176779  
      62A      0.188242    63A      0.215829    64A      0.216752  
      65A      0.229381    66A      0.259803    67A      0.269791  
      68A      0.305491    69A      0.324409    70A      0.333767  
      71A      0.343397    72A      0.351745    73A      0.365765  
      74A      0.412740    75A      0.426297    76A      0.457296  
      77A      0.467035    78A      0.483913    79A      0.498476  
      80A      0.518653    81A      0.524445    82A      0.536029  
      83A      0.543881    84A      0.564849    85A      0.575044  
      86A      0.581007    87A      0.589715    88A      0.599905  
      89A      0.602730    90A      0.610026    91A      0.615685  
      92A      0.621701    93A      0.633459    94A      0.656767  
      95A      0.666335    96A      0.672179    97A      0.682299  
      98A      0.690192    99A      0.694707   100A      0.700356  
     101A      0.705669   102A      0.713284   103A      0.717334  
     104A      0.741097   105A      0.745396   106A      0.753319  
     107A      0.755240   108A      0.759371   109A      0.764788  
     110A      0.774230   111A      0.778304   112A      0.798347  
     113A      0.800266   114A      0.803351   115A      0.829283  
     116A      0.841917   117A      0.856442   118A      0.879711  
     119A      0.885911   120A      0.970355   121A      0.992901  
     122A      0.999911   123A      1.021303   124A      1.024114  
     125A      1.029946   126A      1.038001   127A      1.070293  
     128A      1.090504   129A      1.117061   130A      1.130576  
     131A      1.138899   132A      1.143246   133A      1.148251  
     134A      1.172333   135A      1.185592   136A      1.204997  
     137A      1.231086   138A      1.256891   139A      1.266972  
     140A      1.285680   141A      1.306886   142A      1.326176  
     143A      1.332928   144A      1.376686   145A      1.396584  
     146A      1.418071   147A      1.440640   148A      1.481119  
     149A      1.491023   150A      1.508347   151A      1.527010  
     152A      1.550276   153A      1.581486   154A      1.588456  
     155A      1.607706   156A      1.629239   157A      1.636082  
     158A      1.642708   159A      1.652918   160A      1.661049  
     161A      1.687568   162A      1.698526   163A      1.708687  
     164A      1.729794   165A      1.740136   166A      1.751943  
     167A      1.758897   168A      1.769580   169A      1.782821  
     170A      1.789969   171A      1.794838   172A      1.805173  
     173A      1.813549   174A      1.821004   175A      1.828999  
     176A      1.831752   177A      1.839925   178A      1.845356  
     179A      1.847854   180A      1.870613   181A      1.878908  
     182A      1.896089   183A      1.899337   184A      1.916112  
     185A      1.933110   186A      1.942726   187A      1.949833  
     188A      1.965529   189A      1.986593   190A      1.994871  
     191A      2.022092   192A      2.028285   193A      2.029037  
     194A      2.041451   195A      2.056602   196A      2.067084  
     197A      2.094722   198A      2.100206   199A      2.117857  
     200A      2.127137   201A      2.131964   202A      2.150068  
     203A      2.166232   204A      2.180287   205A      2.189347  
     206A      2.215293   207A      2.234959   208A      2.246001  
     209A      2.261523   210A      2.284521   211A      2.287428  
     212A      2.315565   213A      2.338104   214A      2.342971  
     215A      2.379916   216A      2.416809   217A      2.439454  
     218A      2.453716   219A      2.516581   220A      2.554648  
     221A      2.565233   222A      2.593294   223A      2.615115  
     224A      2.617641   225A      2.625958   226A      2.633225  
     227A      2.643135   228A      2.649233   229A      2.652919  
     230A      2.712074   231A      2.753458   232A      2.777446  
     233A      2.824313   234A      2.842129   235A      2.855184  
     236A      2.882353   237A      2.945608   238A      2.979893  
     239A      3.035739   240A      3.053379   241A      3.111656  
     242A      3.132451   243A      3.780460  

    Final Occupation by Irrep:
              A 
    DOCC [    43 ]

  @DF-RHF Final Energy:  -462.78132685172523

   => Energetics <=

    Nuclear Repulsion Energy =            681.1823266703247555
    One-Electron Energy =               -1962.5373610230374197
    Two-Electron Energy =                 818.5737075009874388
    Total Energy =                       -462.7813268517252254

Computation Completed


Properties will be evaluated at   0.000000,   0.000000,   0.000000 [a0]

Properties computed using the SCF density matrix

  Nuclear Dipole Moment: [e a0]
     X:     8.1044      Y:     2.5871      Z:    -2.4817

  Electronic Dipole Moment: [e a0]
     X:    -6.4024      Y:    -1.6602      Z:     0.2664

  Dipole Moment: [e a0]
     X:     1.7020      Y:     0.9269      Z:    -2.2152     Total:     2.9434

  Dipole Moment: [D]
     X:     4.3262      Y:     2.3560      Z:    -5.6306     Total:     7.4813


*** tstop() called on skylm001.palmetto.clemson.edu at Sun Feb 20 01:07:35 2022
Module time:
	user time   =      15.36 seconds =       0.26 minutes
	system time =       0.72 seconds =       0.01 minutes
	total time  =         16 seconds =       0.27 minutes
Total time:
	user time   =  126021.60 seconds =    2100.36 minutes
	system time =   28061.77 seconds =     467.70 minutes
	total time  =     201061 seconds =    3351.02 minutes
 MINTS: Wrapper to libmints.
   by Justin Turney

   Calculation information:
      Number of threads:                 1
      Number of atoms:                  27
      Number of AO shells:             117
      Number of SO shells:             117
      Number of primitives:            339
      Number of atomic orbitals:       255
      Number of basis functions:       243

      Number of irreps:                  1
      Integral cutoff                 1.00e-12
      Number of functions per irrep: [ 243 ]

 OEINTS: Overlap, kinetic, potential, dipole, and quadrupole integrals
         stored in file 35.

      Computing two-electron integrals...done
      Computed 304808191 non-zero two-electron integrals.
        Stored in file 33.


*** tstart() called on skylm001.palmetto.clemson.edu
*** at Sun Feb 20 01:11:46 2022


	Wfn Parameters:
	--------------------
	Wavefunction         = CCSD
	Number of irreps     = 1
	Number of MOs        = 243
	Number of active MOs = 243
	AO-Basis             = NONE
	Semicanonical        = false
	Reference            = RHF
	Print Level          = 1

	IRREP	# MOs	# FZDC	# DOCC	# SOCC	# VIRT	# FZVR
	-----	-----	------	------	------	------	------
	 A	   243	    0	    43	    0	    200	    0
	Transforming integrals...
	IWL integrals will be deleted.
	(OO|OO)...
	Presorting SO-basis two-electron integrals.
	Sorting File: SO Ints (nn|nn) nbuckets = 1
	Constructing frozen core operators
	Starting first half-transformation.
	Sorting half-transformed integrals.
	First half integral transformation complete.
	Starting second half-transformation.
	Two-electron integral transformation complete.
	(OO|OV)...
	Starting second half-transformation.
	Two-electron integral transformation complete.
	(OO|VV)...
	Starting second half-transformation.
	Two-electron integral transformation complete.
	(OV|OO)...
	Starting first half-transformation.
	Sorting half-transformed integrals.
	First half integral transformation complete.
	Starting second half-transformation.
	Two-electron integral transformation complete.
	(OV|OV)...
	Starting second half-transformation.
	Two-electron integral transformation complete.
	(OV|VV)...
	Starting second half-transformation.
	Two-electron integral transformation complete.
	(VV|OO)...
	Starting first half-transformation.
	Sorting half-transformed integrals.
	First half integral transformation complete.
	Starting second half-transformation.
	Two-electron integral transformation complete.
	(VV|OV)...
	Starting second half-transformation.
	Two-electron integral transformation complete.
	(VV|VV)...
	Starting second half-transformation.
	Two-electron integral transformation complete.
	Frozen core energy     =      0.00000000000000

	Size of irrep 0 of <ab|cd> integrals:   1600.000 (MW) /  12800.000 (MB)
	Total:                                  1600.000 (MW) /  12800.000 (MB)

	Size of irrep 0 of <ia|bc> integrals:    344.000 (MW) /   2752.000 (MB)
	Total:                                   344.000 (MW) /   2752.000 (MB)

	Size of irrep 0 of tijab amplitudes:      73.960 (MW) /    591.680 (MB)
	Total:                                    73.960 (MW) /    591.680 (MB)

	Nuclear Rep. energy          =    681.18232667032476
	SCF energy                   =   -462.78132685172523
	One-electron energy          =  -1962.53736096563398
	Two-electron energy          =    818.57309830972383
	Reference energy             =   -462.78193598558551

*** tstop() called on skylm001.palmetto.clemson.edu at Sun Feb 20 01:19:50 2022
Module time:
	user time   =     209.15 seconds =       3.49 minutes
	system time =     103.59 seconds =       1.73 minutes
	total time  =        484 seconds =       8.07 minutes
Total time:
	user time   =  126384.24 seconds =    2106.40 minutes
	system time =   28174.71 seconds =     469.58 minutes
	total time  =     201796 seconds =    3363.27 minutes
            **************************
            *                        *
            *        CCENERGY        *
            *                        *
            **************************

    Nuclear Rep. energy (wfn)     =  681.182326670324755
    SCF energy          (wfn)     = -462.781326851725225
    Reference energy    (file100) = -462.781935985585505

    Input parameters:
    -----------------
    Wave function   =     CCSD
    Reference wfn   =     RHF
    Brueckner       =     No
    Memory (Mbytes) =     62000.0
    Maxiter         =     50
    R_Convergence   =     1.0e-07
    E_Convergence   =     1.0e-08
    Restart         =     Yes
    DIIS            =     Yes
    AO Basis        =     NONE
    ABCD            =     NEW
    Cache Level     =     2
    Cache Type      =     LOW
    Print Level     =     1
    Num. of threads =     1
    # Amps to Print =     10
    Print MP2 Amps? =     No
    Analyze T2 Amps =     No
    Print Pair Ener =     No
    Local CC        =     No
    SCS-MP2         =     False
    SCSN-MP2        =     False
    SCS-CCSD        =     False

MP2 correlation energy -1.6559377527287689
                Solving CC Amplitude Equations
                ------------------------------
  Iter             Energy              RMS        T1Diag      D1Diag    New D1Diag    D2Diag
  ----     ---------------------    ---------   ----------  ----------  ----------   --------
     0        -1.655937752728769    0.000e+00    0.000000    0.000000    0.000000    0.176050
     1        -1.685812993997035    1.231e-01    0.006776    0.023127    0.023127    0.167345
     2        -1.731320856132222    4.229e-02    0.007038    0.023354    0.023354    0.180827
     3        -1.740884254247373    1.693e-02    0.007940    0.026853    0.026853    0.185150
     4        -1.740941416044851    5.084e-03    0.008027    0.027138    0.027138    0.187202
     5        -1.741125355762477    2.039e-03    0.008060    0.027368    0.027368    0.188191
     6        -1.741153456639995    6.273e-04    0.008058    0.027361    0.027361    0.188413
     7        -1.741134137047446    2.324e-04    0.008056    0.027366    0.027366    0.188476
     8        -1.741130442562183    7.106e-05    0.008056    0.027366    0.027366    0.188492
     9        -1.741133202403942    2.827e-05    0.008056    0.027367    0.027367    0.188496
    10        -1.741131402361421    1.110e-05    0.008056    0.027367    0.027367    0.188497
    11        -1.741131292934524    4.258e-06    0.008056    0.027367    0.027367    0.188497
    12        -1.741131112973208    1.962e-06    0.008056    0.027367    0.027367    0.188497
    13        -1.741131046622341    7.170e-07    0.008056    0.027367    0.027367    0.188497
    14        -1.741131032894575    3.393e-07    0.008056    0.027367    0.027367    0.188497
    15        -1.741131027904420    1.538e-07    0.008056    0.027367    0.027367    0.188497
    16        -1.741131025597698    8.024e-08    0.008056    0.027367    0.027367    0.188497

    Iterations converged.


    Largest TIA Amplitudes:
             41  49        -0.0118957099
             42  42        -0.0115514795
             41  85         0.0101260944
             41  43         0.0093302547
             41  48         0.0081845927
             41  46         0.0081258494
             39  42         0.0081090343
             42  82         0.0080862896
             37  42         0.0076988540
             42  50         0.0071484073

    Largest TIjAb Amplitudes:
     41  41   3   3        -0.0763494240
     42  42   2   2        -0.0751497496
     41  42   2   3         0.0443981783
     42  41   3   2         0.0443981783
     41  41   2   2        -0.0340756172
     42  42   3   3        -0.0318061568
     37  41   3  19         0.0141939860
     41  37  19   3         0.0141939860
     37  42   2  19        -0.0139938463
     42  37  19   2        -0.0139938463

    SCF energy       (wfn)                    = -462.781326851725225
    Reference energy (file100)                = -462.781935985585505

    Opposite-spin MP2 correlation energy      =   -1.225982097096822
    Same-spin MP2 correlation energy          =   -0.429955655631947
    Singles MP2 correlation energy            =   -0.000000000000000
    MP2 correlation energy                    =   -1.655937752728769
      * MP2 total energy                      = -464.437873738314295

    Opposite-spin CCSD correlation energy     =   -1.353318405293551
    Same-spin CCSD correlation energy         =   -0.387812620304148
    Singles CCSD correlation energy           =    0.000000000000000
    CCSD correlation energy                   =   -1.741131025597698
      * CCSD total energy                     = -464.523067011183230


			**************************
			*                        *
			*         CCHBAR         *
			*                        *
			**************************


			**************************
			*        CCLAMBDA        *
			**************************


	Nuclear Rep. energy (wfn)     =  681.182326670324755
	Reference           (wfn)     =                    0
	SCF energy          (wfn)     = -462.781326851725225
	Reference energy    (CC_INFO) = -462.781935985585505
	CCSD energy         (CC_INFO) =   -1.741131025597698
	Total CCSD energy   (CC_INFO) = -464.523067011183230

	Input parameters:
	-----------------
	Maxiter           =     50
	Convergence       = 1.0e-07
	Restart           =     No
	Cache Level       =     2
	Model III         =     No
	DIIS              =     Yes
	AO Basis          =     No
	ABCD              =     NEW
	Local CC          =     No
	Parameters for left-handed eigenvectors:
	    Irr   Root  Ground-State?    EOM energy        R0
	  1   0     0        Yes       0.0000000000   1.0000000000
	Labels for eigenvector 1:
	LIA 0 -1, Lia 0 -1, LIJAB 0 -1, Lijab 0 -1, LIjAb 0 -1, 2LIjAb - LIjbA 0 -1
	Symmetry of left-hand state: A
	Symmetry of left-hand eigenvector: A

	          Solving Lambda Equations
	          ------------------------
	Iter     PseudoEnergy or Norm         RMS  
	----     ---------------------     --------
	   0        -1.741163733117548    8.383e-08
	   1        -1.689001349313459    2.972e-02
	   2        -1.684538589873966    6.533e-03
	   3        -1.683169038806304    2.098e-03
	   4        -1.683166845764992    6.672e-04
	   5        -1.683186182220650    2.614e-04
	   6        -1.683176973276627    9.031e-05
	   7        -1.683176447437550    4.082e-05
	   8        -1.683177149913827    1.607e-05
	   9        -1.683177044997946    7.556e-06
	  10        -1.683177251342584    3.097e-06
	  11        -1.683177148131057    1.252e-06
	  12        -1.683177125111193    4.620e-07
	  13        -1.683177121913790    1.903e-07
	  14        -1.683177119911403    8.372e-08

	Largest LIA Amplitudes:
	         41  49        -0.0095528023
	         42  42        -0.0093042173
	         41  85         0.0080232003
	         41  43         0.0074939590
	         41  48         0.0065614046
	         41  46         0.0065511946
	         39  42         0.0065032623
	         42  82         0.0062762845
	         37  42         0.0061855149
	         42  50         0.0057481264

	Largest LIjAb Amplitudes:
	 41  41   3   3        -0.0720923095
	 42  42   2   2        -0.0707965831
	 41  42   2   3         0.0421841672
	 42  41   3   2         0.0421841672
	 41  41   2   2        -0.0304916503
	 42  42   3   3        -0.0284673503
	 37  41   3  19         0.0135335297
	 41  37  19   3         0.0135335297
	 37  42   2  19        -0.0133409700
	 42  37  19   2        -0.0133409700

	Iterations converged.

	Overlap <L|e^T> =        0.33782141171

			**************************
			*                        *
			*        CCDENSITY       *
			*                        *
			**************************


	Input parameters:
	-----------------
	Wave function    =   CCSD
	Reference wfn    =   RHF
	Dertype          = 1
	Tolerance        = 1.0e-14
	Cache Level      = 2
	AO Basis         = No
	OPDM Only        = No
	Relax OPDM       = Yes
	Compute Xi       = No
	Use Zeta         = No
	Xi connected     = Yes
	Compute NO       = No

	Nuclear Rep. energy (wfn)     =  681.182326670324755
	SCF energy          (wfn)     = -462.781326851725225
	Reference energy    (file100) = -462.781935985585505
	CCSD energy         (CC_INFO) =   -1.741131025597698
	Total CCSD energy   (CC_INFO) = -464.523067011183230
	Number of States = 1

	Ground?  State     EOM Energy       R0
	  Yes     0  A    0.0000000000   1.00000000

	Virial Theorem Data:
	--------------------
	Kinetic energy (ref)   =  462.237270799628902
	Kinetic energy (corr)  =    1.653059510405655
	Kinetic energy (total) =  463.890330310034585
	-V/T (ref)             =    2.001178323818446
	-V/T (corr)            =    2.053277885422546
	-V/T (total)           =    2.001363979069634
