
    -----------------------------------------------------------------------
          Psi4: An Open-Source Ab Initio Electronic Structure Package
                               Psi4 1.4 release

                         Git: Rev {HEAD} 9485035 


    D. G. A. Smith, L. A. Burns, A. C. Simmonett, R. M. Parrish,
    M. C. Schieber, R. Galvelis, P. Kraus, H. Kruse, R. Di Remigio,
    A. Alenaizan, A. M. James, S. Lehtola, J. P. Misiewicz, M. Scheurer,
    R. A. Shaw, J. B. Schriber, Y. Xie, Z. L. Glick, D. A. Sirianni,
    J. S. O'Brien, J. M. Waldrop, A. Kumar, E. G. Hohenstein,
    B. P. Pritchard, B. R. Brooks, H. F. Schaefer III, A. Yu. Sokolov,
    K. Patkowski, A. E. DePrince III, U. Bozkaya, R. A. King,
    F. A. Evangelista, J. M. Turney, T. D. Crawford, C. D. Sherrill,
    J. Chem. Phys. 152(18) 184108 (2020). https://doi.org/10.1063/5.0006002

                            Additional Code Authors
    E. T. Seidl, C. L. Janssen, E. F. Valeev, M. L. Leininger,
    J. F. Gonthier, R. M. Richard, H. R. McAlexander, M. Saitow, X. Wang,
    P. Verma, and M. H. Lechner

             Previous Authors, Complete List of Code Contributors,
                       and Citations for Specific Modules
    https://github.com/psi4/psi4/blob/master/codemeta.json
    https://github.com/psi4/psi4/graphs/contributors
    http://psicode.org/psi4manual/master/introduction.html#citing-psifour

    -----------------------------------------------------------------------


    Psi4 started on: Saturday, 11 December 2021 05:47PM

    Process ID: 3177325
    Host:       skystd25.palmetto.clemson.edu
    PSIDATADIR: /home/maxbuskirk/.conda/envs/psifour/share/psi4
    Memory:     500.0 MiB
    Threads:    1
    
  ==> Input File <==

--------------------------------------------------------------------------
molecule mol {
0 1
 C     1.511290    -0.280966    -0.092593
 C    -0.000000     0.000000     0.000000
 C    -0.605968    -1.226439    -0.664954
 C     0.319060    -1.848819    -1.451355
 C     1.653820    -1.134973    -1.365322
 C    -2.027094    -1.583009    -0.507457
 C    -2.438238    -2.928025    -0.366876
 C    -3.794208    -3.253627    -0.211477
 C    -4.766046    -2.240264    -0.182231
 C    -4.369571    -0.897483    -0.299270
 C    -3.014139    -0.572542    -0.452922
 C     0.120138    -2.993149    -2.399423
 H    -2.715369     0.476287    -0.545440
 H    -5.118805    -0.100426    -0.268581
 O    -6.099328    -2.559996    -0.025611
 H    -4.091097    -4.301038    -0.099616
 H    -1.681648    -3.717845    -0.347819
 H     1.812305    -0.886836     0.778541
 H     2.127353     0.631886    -0.103726
 H     2.509857    -1.831293    -1.328975
 H     1.794964    -0.502471    -2.264944
 H    -0.944311    -3.224044    -2.552012
 H     0.568816    -2.749556    -3.378502
 H     0.625600    -3.906462    -2.037287
 H    -0.354002     0.144380     1.034324
 H    -0.267853     0.913064    -0.567140
 H    -6.616502    -1.766689    -0.027354
}

set scf_type df
set basis cc-pVTZ
set reference rhf

mol.update_geometry()
mol.symmetrize(1e-3)

e, wfn = optimize('mp2', return_wfn=True)
oeprop(wfn, "MULLIKEN_CHARGES")
mol.print_out()
print_variables()
--------------------------------------------------------------------------

Scratch directory: /local_scratch/pbs.4129854.pbs02/
gradient() will perform analytic gradient computation.

*** tstart() called on skystd25.palmetto.clemson.edu
*** at Sat Dec 11 17:47:53 2021

   => Loading Basis Set <=

    Name: CC-PVTZ
    Role: ORBITAL
    Keyword: BASIS
    atoms 1-12         entry C          line   186 file /home/maxbuskirk/.conda/envs/psifour/share/psi4/basis/cc-pvtz.gbs 
    atoms 13-14, 16-27 entry H          line    23 file /home/maxbuskirk/.conda/envs/psifour/share/psi4/basis/cc-pvtz.gbs 
    atoms 15           entry O          line   262 file /home/maxbuskirk/.conda/envs/psifour/share/psi4/basis/cc-pvtz.gbs 


         ---------------------------------------------------------
                                   SCF
               by Justin Turney, Rob Parrish, Andy Simmonett
                          and Daniel G. A. Smith
                              RHF Reference
                        1 Threads,    500 MiB Core
         ---------------------------------------------------------

  ==> Geometry <==

    Molecular point group: c1
    Full point group: C1

    Geometry (in Angstrom), charge = 0, multiplicity = 1:

       Center              X                  Y                   Z               Mass       
    ------------   -----------------  -----------------  -----------------  -----------------
         C            3.343161681350     1.381498185863     0.528507420066    12.000000000000
         C            1.831871681350     1.662464185863     0.621100420066    12.000000000000
         C            1.225903681350     0.436025185863    -0.043853579934    12.000000000000
         C            2.150931681350    -0.186354814137    -0.830254579934    12.000000000000
         C            3.485691681350     0.527491185863    -0.744221579934    12.000000000000
         C           -0.195222318650     0.079455185863     0.113643420066    12.000000000000
         C           -0.606366318650    -1.265560814137     0.254224420066    12.000000000000
         C           -1.962336318650    -1.591162814137     0.409623420066    12.000000000000
         C           -2.934174318650    -0.577799814137     0.438869420066    12.000000000000
         C           -2.537699318650     0.764981185863     0.321830420066    12.000000000000
         C           -1.182267318650     1.089922185863     0.168178420066    12.000000000000
         C            1.952009681350    -1.330684814137    -1.778322579934    12.000000000000
         H           -0.883497318650     2.138751185863     0.075660420066     1.007825032230
         H           -3.286933318650     1.562038185863     0.352519420066     1.007825032230
         O           -4.267456318650    -0.897531814137     0.595489420066    15.994914619570
         H           -2.259225318650    -2.638573814137     0.521484420066     1.007825032230
         H            0.150223681350    -2.055380814137     0.273281420066     1.007825032230
         H            3.644176681350     0.775628185863     1.399641420066     1.007825032230
         H            3.959224681350     2.294350185863     0.517374420066     1.007825032230
         H            4.341728681350    -0.168828814137    -0.707874579934     1.007825032230
         H            3.626835681350     1.159993185863    -1.643843579934     1.007825032230
         H            0.887560681350    -1.561579814137    -1.930911579934     1.007825032230
         H            2.400687681350    -1.087091814137    -2.757401579934     1.007825032230
         H            2.457471681350    -2.243997814137    -1.416186579934     1.007825032230
         H            1.477869681350     1.806844185863     1.655424420066     1.007825032230
         H            1.564018681350     2.575528185863     0.053960420066     1.007825032230
         H           -4.784630318650    -0.104224814137     0.593746420066     1.007825032230

  Running in c1 symmetry.

  Rotational constants: A =      0.06639  B =      0.01409  C =      0.01232 [cm^-1]
  Rotational constants: A =   1990.39664  B =    422.52470  C =    369.24234 [MHz]
  Nuclear repulsion =  744.703870898503169

  Charge       = 0
  Multiplicity = 1
  Electrons    = 94
  Nalpha       = 47
  Nbeta        = 47

  ==> Algorithm <==

  SCF Algorithm Type is DF.
  DIIS enabled.
  MOM disabled.
  Fractional occupation disabled.
  Guess Type is SAD.
  Energy threshold   = 1.00e-10
  Density threshold  = 1.00e-10
  Integral threshold = 1.00e-12

  ==> Primary Basis <==

  Basis Set: CC-PVTZ
    Blend: CC-PVTZ
    Number of shells: 214
    Number of basis functions: 586
    Number of Cartesian functions: 665
    Spherical Harmonics?: true
    Max angular momentum: 3

   => Loading Basis Set <=

    Name: (CC-PVTZ AUX)
    Role: JKFIT
    Keyword: DF_BASIS_SCF
    atoms 1-12         entry C          line   125 file /home/maxbuskirk/.conda/envs/psifour/share/psi4/basis/cc-pvtz-jkfit.gbs 
    atoms 13-14, 16-27 entry H          line    51 file /home/maxbuskirk/.conda/envs/psifour/share/psi4/basis/cc-pvtz-jkfit.gbs 
    atoms 15           entry O          line   229 file /home/maxbuskirk/.conda/envs/psifour/share/psi4/basis/cc-pvtz-jkfit.gbs 

  ==> Integral Setup <==

  ==> DiskDFJK: Density-Fitted J/K Matrices <==

    J tasked:                  Yes
    K tasked:                  Yes
    wK tasked:                  No
    OpenMP threads:              1
    Integrals threads:           1
    Memory [MiB]:              375
    Algorithm:                Disk
    Integral Cache:           NONE
    Schwarz Cutoff:          1E-12
    Fitting Condition:       1E-10

   => Auxiliary Basis Set <=

  Basis Set: (CC-PVTZ AUX)
    Blend: CC-PVTZ-JKFIT
    Number of shells: 465
    Number of basis functions: 1447
    Number of Cartesian functions: 1738
    Spherical Harmonics?: true
    Max angular momentum: 4

  Minimum eigenvalue in the overlap matrix is 3.4636695532E-05.
  Reciprocal condition number of the overlap matrix is 3.8851707514E-06.
    Using symmetric orthogonalization.

  ==> Pre-Iterations <==

  SCF Guess: Superposition of Atomic Densities via on-the-fly atomic UHF (no occupation information).

   -------------------------
    Irrep   Nso     Nmo    
   -------------------------
     A        586     586 
   -------------------------
    Total     586     586
   -------------------------

  ==> Iterations <==

                           Total Energy        Delta E     RMS |[F,P]|

   @DF-RHF iter SAD:  -537.10764152733407   -5.37108e+02   0.00000e+00 
   @DF-RHF iter   1:  -537.24408478738985   -1.36443e-01   1.27688e-03 DIIS
   @DF-RHF iter   2:  -537.53262093154046   -2.88536e-01   5.91189e-04 DIIS
   @DF-RHF iter   3:  -537.59116515193159   -5.85442e-02   1.36229e-04 DIIS
   @DF-RHF iter   4:  -537.59603745479058   -4.87230e-03   5.95162e-05 DIIS
   @DF-RHF iter   5:  -537.59675934328459   -7.21888e-04   1.20881e-05 DIIS
   @DF-RHF iter   6:  -537.59680141783588   -4.20746e-05   4.75379e-06 DIIS
   @DF-RHF iter   7:  -537.59680702838739   -5.61055e-06   1.28019e-06 DIIS
   @DF-RHF iter   8:  -537.59680771822980   -6.89842e-07   5.10413e-07 DIIS
   @DF-RHF iter   9:  -537.59680782769624   -1.09466e-07   1.97779e-07 DIIS
   @DF-RHF iter  10:  -537.59680785123533   -2.35391e-08   8.97189e-08 DIIS
   @DF-RHF iter  11:  -537.59680785790079   -6.66546e-09   4.20723e-08 DIIS
   @DF-RHF iter  12:  -537.59680785951571   -1.61492e-09   1.88342e-08 DIIS
   @DF-RHF iter  13:  -537.59680785986518   -3.49473e-10   7.03003e-09 DIIS
   @DF-RHF iter  14:  -537.59680785990281   -3.76303e-11   2.75500e-09 DIIS
   @DF-RHF iter  15:  -537.59680785990577   -2.95586e-12   1.01605e-09 DIIS
   @DF-RHF iter  16:  -537.59680785990702   -1.25056e-12   4.94565e-10 DIIS
   @DF-RHF iter  17:  -537.59680785990906   -2.04636e-12   2.21720e-10 DIIS
   @DF-RHF iter  18:  -537.59680785990827    7.95808e-13   9.33876e-11 DIIS
  Energy and wave function converged.


  ==> Post-Iterations <==

    Orbital Energies [Eh]
    ---------------------

    Doubly Occupied:                                                      

       1A    -20.584182     2A    -11.305015     3A    -11.243144  
       4A    -11.241598     5A    -11.237074     6A    -11.236748  
       7A    -11.233165     8A    -11.228925     9A    -11.224879  
      10A    -11.223053    11A    -11.222709    12A    -11.221694  
      13A    -11.220520    14A     -1.400012    15A     -1.155075  
      16A     -1.124656    17A     -1.022682    18A     -1.015782  
      19A     -1.003094    20A     -0.939493    21A     -0.897961  
      22A     -0.842038    23A     -0.822101    24A     -0.778632  
      25A     -0.729758    26A     -0.713252    27A     -0.654388  
      28A     -0.644191    29A     -0.637481    30A     -0.617445  
      31A     -0.587991    32A     -0.584919    33A     -0.582201  
      34A     -0.571583    35A     -0.564560    36A     -0.549863  
      37A     -0.540362    38A     -0.505571    39A     -0.494407  
      40A     -0.489395    41A     -0.477675    42A     -0.475617  
      43A     -0.463179    44A     -0.460120    45A     -0.352672  
      46A     -0.339492    47A     -0.280960  

    Virtual:                                                              

      48A      0.118417    49A      0.121341    50A      0.136040  
      51A      0.140896    52A      0.157679    53A      0.163293  
      54A      0.173438    55A      0.185608    56A      0.190291  
      57A      0.197992    58A      0.212589    59A      0.219995  
      60A      0.227699    61A      0.237345    62A      0.240975  
      63A      0.247906    64A      0.268597    65A      0.301247  
      66A      0.309022    67A      0.328310    68A      0.336464  
      69A      0.341710    70A      0.347210    71A      0.354278  
      72A      0.368702    73A      0.382962    74A      0.390832  
      75A      0.418927    76A      0.420942    77A      0.435095  
      78A      0.442206    79A      0.451908    80A      0.460557  
      81A      0.467170    82A      0.472109    83A      0.486502  
      84A      0.488510    85A      0.498929    86A      0.502105  
      87A      0.510888    88A      0.529810    89A      0.543153  
      90A      0.549335    91A      0.560124    92A      0.561044  
      93A      0.564659    94A      0.570003    95A      0.579484  
      96A      0.587318    97A      0.594892    98A      0.597339  
      99A      0.601533   100A      0.605671   101A      0.613299  
     102A      0.617536   103A      0.624504   104A      0.629851  
     105A      0.637075   106A      0.645228   107A      0.653864  
     108A      0.655891   109A      0.661210   110A      0.662159  
     111A      0.670073   112A      0.678677   113A      0.681020  
     114A      0.685637   115A      0.689523   116A      0.700210  
     117A      0.713188   118A      0.720616   119A      0.727894  
     120A      0.735512   121A      0.739475   122A      0.759788  
     123A      0.760635   124A      0.771193   125A      0.778476  
     126A      0.798485   127A      0.830261   128A      0.834750  
     129A      0.836875   130A      0.848573   131A      0.858570  
     132A      0.874750   133A      0.884397   134A      0.894114  
     135A      0.901545   136A      0.914711   137A      0.923899  
     138A      0.935260   139A      0.940088   140A      0.949813  
     141A      0.962115   142A      0.979100   143A      0.982434  
     144A      0.998720   145A      1.011036   146A      1.016122  
     147A      1.023652   148A      1.027584   149A      1.037895  
     150A      1.043184   151A      1.061184   152A      1.070602  
     153A      1.073225   154A      1.087935   155A      1.095164  
     156A      1.100324   157A      1.112781   158A      1.134846  
     159A      1.144480   160A      1.154760   161A      1.171441  
     162A      1.177588   163A      1.187596   164A      1.193707  
     165A      1.206408   166A      1.212899   167A      1.221452  
     168A      1.237113   169A      1.248128   170A      1.249563  
     171A      1.268104   172A      1.277835   173A      1.286226  
     174A      1.290532   175A      1.299292   176A      1.301193  
     177A      1.326584   178A      1.330844   179A      1.349471  
     180A      1.357024   181A      1.360981   182A      1.363362  
     183A      1.378574   184A      1.385083   185A      1.401447  
     186A      1.412902   187A      1.420376   188A      1.427578  
     189A      1.439850   190A      1.447133   191A      1.451133  
     192A      1.459907   193A      1.464882   194A      1.482070  
     195A      1.493760   196A      1.507059   197A      1.508658  
     198A      1.516515   199A      1.527693   200A      1.534074  
     201A      1.541107   202A      1.542640   203A      1.556719  
     204A      1.560543   205A      1.562721   206A      1.574678  
     207A      1.582423   208A      1.600634   209A      1.607830  
     210A      1.612821   211A      1.620850   212A      1.634027  
     213A      1.638066   214A      1.660085   215A      1.666991  
     216A      1.684368   217A      1.689761   218A      1.693547  
     219A      1.697645   220A      1.721833   221A      1.733573  
     222A      1.745271   223A      1.747531   224A      1.763034  
     225A      1.774700   226A      1.783836   227A      1.802738  
     228A      1.814752   229A      1.820082   230A      1.838228  
     231A      1.854661   232A      1.894818   233A      1.922681  
     234A      1.935567   235A      1.955185   236A      1.972677  
     237A      1.980669   238A      1.993643   239A      2.015495  
     240A      2.082531   241A      2.149026   242A      2.165271  
     243A      2.185619   244A      2.197945   245A      2.208080  
     246A      2.245669   247A      2.328199   248A      2.355077  
     249A      2.367188   250A      2.408231   251A      2.412745  
     252A      2.440521   253A      2.456128   254A      2.472648  
     255A      2.509415   256A      2.516238   257A      2.538169  
     258A      2.580993   259A      2.598783   260A      2.602146  
     261A      2.624103   262A      2.629937   263A      2.649008  
     264A      2.662471   265A      2.668857   266A      2.680817  
     267A      2.709927   268A      2.731425   269A      2.745483  
     270A      2.752874   271A      2.762839   272A      2.774564  
     273A      2.788671   274A      2.797431   275A      2.809429  
     276A      2.812061   277A      2.824120   278A      2.832243  
     279A      2.843426   280A      2.846843   281A      2.866866  
     282A      2.873122   283A      2.883349   284A      2.893457  
     285A      2.896651   286A      2.915891   287A      2.928630  
     288A      2.944769   289A      2.949887   290A      2.956905  
     291A      2.962007   292A      2.972452   293A      2.976080  
     294A      2.986898   295A      3.003079   296A      3.005502  
     297A      3.019891   298A      3.033548   299A      3.048357  
     300A      3.050269   301A      3.063199   302A      3.067308  
     303A      3.077766   304A      3.086185   305A      3.101229  
     306A      3.104343   307A      3.122083   308A      3.123146  
     309A      3.139972   310A      3.145283   311A      3.170584  
     312A      3.172875   313A      3.181241   314A      3.187725  
     315A      3.213038   316A      3.234508   317A      3.239128  
     318A      3.250818   319A      3.258527   320A      3.261669  
     321A      3.271776   322A      3.278060   323A      3.290663  
     324A      3.302901   325A      3.313408   326A      3.319386  
     327A      3.323067   328A      3.341858   329A      3.352153  
     330A      3.352907   331A      3.357240   332A      3.369810  
     333A      3.376845   334A      3.381144   335A      3.385690  
     336A      3.392296   337A      3.398007   338A      3.405480  
     339A      3.408828   340A      3.410502   341A      3.425431  
     342A      3.425468   343A      3.434606   344A      3.437407  
     345A      3.451216   346A      3.453644   347A      3.463934  
     348A      3.469759   349A      3.480418   350A      3.490088  
     351A      3.496536   352A      3.503300   353A      3.523220  
     354A      3.528612   355A      3.536558   356A      3.542553  
     357A      3.553317   358A      3.557366   359A      3.562385  
     360A      3.583250   361A      3.588720   362A      3.594858  
     363A      3.607574   364A      3.622057   365A      3.631237  
     366A      3.636359   367A      3.650885   368A      3.663281  
     369A      3.664805   370A      3.671514   371A      3.676876  
     372A      3.683444   373A      3.700882   374A      3.714571  
     375A      3.720265   376A      3.733104   377A      3.740255  
     378A      3.745796   379A      3.746835   380A      3.762157  
     381A      3.777476   382A      3.783151   383A      3.785858  
     384A      3.789128   385A      3.815978   386A      3.822958  
     387A      3.827771   388A      3.843675   389A      3.853921  
     390A      3.855652   391A      3.861967   392A      3.883900  
     393A      3.897965   394A      3.912659   395A      3.920742  
     396A      3.939079   397A      3.945639   398A      3.957023  
     399A      3.974542   400A      3.978653   401A      3.995506  
     402A      4.005804   403A      4.011434   404A      4.020032  
     405A      4.022545   406A      4.030936   407A      4.038748  
     408A      4.043687   409A      4.068226   410A      4.077277  
     411A      4.094571   412A      4.099069   413A      4.103588  
     414A      4.109468   415A      4.117803   416A      4.125608  
     417A      4.138295   418A      4.143898   419A      4.151727  
     420A      4.163669   421A      4.173972   422A      4.183569  
     423A      4.188696   424A      4.193566   425A      4.197887  
     426A      4.211727   427A      4.219613   428A      4.232076  
     429A      4.240712   430A      4.247399   431A      4.265476  
     432A      4.271198   433A      4.275575   434A      4.296840  
     435A      4.306681   436A      4.315166   437A      4.321924  
     438A      4.335087   439A      4.345114   440A      4.350772  
     441A      4.354875   442A      4.371484   443A      4.381969  
     444A      4.393731   445A      4.405822   446A      4.419403  
     447A      4.423286   448A      4.431463   449A      4.438388  
     450A      4.445263   451A      4.460106   452A      4.481424  
     453A      4.487695   454A      4.490977   455A      4.511394  
     456A      4.519123   457A      4.533104   458A      4.545183  
     459A      4.551718   460A      4.559080   461A      4.563978  
     462A      4.583109   463A      4.589971   464A      4.595394  
     465A      4.597885   466A      4.616108   467A      4.624255  
     468A      4.637067   469A      4.642581   470A      4.657987  
     471A      4.664390   472A      4.682292   473A      4.691047  
     474A      4.694264   475A      4.705505   476A      4.712756  
     477A      4.721811   478A      4.748056   479A      4.760860  
     480A      4.765413   481A      4.770622   482A      4.806506  
     483A      4.810345   484A      4.846645   485A      4.852662  
     486A      4.867459   487A      4.892158   488A      4.909877  
     489A      4.948843   490A      4.959567   491A      4.999015  
     492A      5.004959   493A      5.020514   494A      5.042588  
     495A      5.056823   496A      5.067620   497A      5.078151  
     498A      5.088089   499A      5.105118   500A      5.123740  
     501A      5.135120   502A      5.146081   503A      5.157386  
     504A      5.169047   505A      5.196494   506A      5.216837  
     507A      5.225397   508A      5.259950   509A      5.267531  
     510A      5.280173   511A      5.288186   512A      5.303089  
     513A      5.328350   514A      5.332431   515A      5.339650  
     516A      5.352684   517A      5.367932   518A      5.388595  
     519A      5.406794   520A      5.426513   521A      5.447434  
     522A      5.450724   523A      5.458274   524A      5.479395  
     525A      5.488008   526A      5.537721   527A      5.545694  
     528A      5.585501   529A      5.593286   530A      5.602315  
     531A      5.605972   532A      5.623389   533A      5.631896  
     534A      5.649543   535A      5.686394   536A      5.692643  
     537A      5.707930   538A      5.717974   539A      5.765074  
     540A      5.786384   541A      5.804683   542A      5.830394  
     543A      5.888009   544A      5.903965   545A      5.932903  
     546A      5.955579   547A      5.970080   548A      5.993583  
     549A      6.095960   550A      6.100603   551A      6.126321  
     552A      6.155686   553A      6.257120   554A      6.270044  
     555A      6.295705   556A      6.320022   557A      6.325908  
     558A      6.337702   559A      6.412641   560A      6.435024  
     561A      6.466754   562A      6.486936   563A      6.598208  
     564A      6.914106   565A      6.992544   566A      7.061968  
     567A      7.114082   568A      7.281208   569A      7.301334  
     570A      7.347235   571A      7.573409   572A      7.799653  
     573A      7.983695   574A      9.237314   575A     10.227784  
     576A     12.500814   577A     12.625101   578A     13.005679  
     579A     13.104533   580A     13.243295   581A     13.468197  
     582A     13.635819   583A     13.917204   584A     14.404820  
     585A     14.682382   586A     15.821189  

    Final Occupation by Irrep:
              A 
    DOCC [    47 ]

  @DF-RHF Final Energy:  -537.59680785990827

   => Energetics <=

    Nuclear Repulsion Energy =            744.7038708985031690
    One-Electron Energy =               -2207.1187320005342372
    Two-Electron Energy =                 924.8180532421226872
    Total Energy =                       -537.5968078599082673

Computation Completed


Properties will be evaluated at   0.000000,   0.000000,   0.000000 [a0]

Properties computed using the SCF density matrix

  Nuclear Dipole Moment: [e a0]
     X:    12.4436      Y:     2.2957      Z:    -2.8219

  Electronic Dipole Moment: [e a0]
     X:   -12.3409      Y:    -1.7772      Z:     2.7045

  Dipole Moment: [e a0]
     X:     0.1028      Y:     0.5185      Z:    -0.1173     Total:     0.5415

  Dipole Moment: [D]
     X:     0.2612      Y:     1.3180      Z:    -0.2982     Total:     1.3763


*** tstop() called on skystd25.palmetto.clemson.edu at Sat Dec 11 17:49:39 2021
Module time:
	user time   =      96.67 seconds =       1.61 minutes
	system time =      10.10 seconds =       0.17 minutes
	total time  =        106 seconds =       1.77 minutes
Total time:
	user time   =      96.67 seconds =       1.61 minutes
	system time =      10.10 seconds =       0.17 minutes
	total time  =        106 seconds =       1.77 minutes

*** tstart() called on skystd25.palmetto.clemson.edu
*** at Sat Dec 11 17:49:39 2021


  //>>>>>>>>>>>>>>>>>>>>>>>>>>>>>>>>>>>//
  //               DFMP2               //
  //<<<<<<<<<<<<<<<<<<<<<<<<<<<<<<<<<<<//

   => Loading Basis Set <=

    Name: (CC-PVTZ AUX)
    Role: RIFIT
    Keyword: DF_BASIS_MP2
    atoms 1-12         entry C          line   209 file /home/maxbuskirk/.conda/envs/psifour/share/psi4/basis/cc-pvtz-ri.gbs 
    atoms 13-14, 16-27 entry H          line    19 file /home/maxbuskirk/.conda/envs/psifour/share/psi4/basis/cc-pvtz-ri.gbs 
    atoms 15           entry O          line   305 file /home/maxbuskirk/.conda/envs/psifour/share/psi4/basis/cc-pvtz-ri.gbs 

	 --------------------------------------------------------
	                          DF-MP2                         
	      2nd-Order Density-Fitted Moller-Plesset Theory     
	              RMP2 Wavefunction,   1 Threads             
	                                                         
	        Rob Parrish, Justin Turney, Andy Simmonett,      
	           Ed Hohenstein, and C. David Sherrill          
	 --------------------------------------------------------

   => Auxiliary Basis Set <=

  Basis Set: (CC-PVTZ AUX)
    Blend: CC-PVTZ-RI
    Number of shells: 439
    Number of basis functions: 1473
    Number of Cartesian functions: 1803
    Spherical Harmonics?: true
    Max angular momentum: 4

	 --------------------------------------------------------
	                 NBF =   586, NAUX =  1473
	 --------------------------------------------------------
	   CLASS    FOCC     OCC    AOCC    AVIR     VIR    FVIR
	   PAIRS       0      47      47     539     539       0
	 --------------------------------------------------------


         ------------------------------------------------------------
                                     CPHF                           
                                  Rob Parrish                       
         ------------------------------------------------------------

  ==> Geometry <==

    Molecular point group: c1
    Full point group: C1

    Geometry (in Angstrom), charge = 0, multiplicity = 1:

       Center              X                  Y                   Z               Mass       
    ------------   -----------------  -----------------  -----------------  -----------------
         C            3.343161681350     1.381498185863     0.528507420066    12.000000000000
         C            1.831871681350     1.662464185863     0.621100420066    12.000000000000
         C            1.225903681350     0.436025185863    -0.043853579934    12.000000000000
         C            2.150931681350    -0.186354814137    -0.830254579934    12.000000000000
         C            3.485691681350     0.527491185863    -0.744221579934    12.000000000000
         C           -0.195222318650     0.079455185863     0.113643420066    12.000000000000
         C           -0.606366318650    -1.265560814137     0.254224420066    12.000000000000
         C           -1.962336318650    -1.591162814137     0.409623420066    12.000000000000
         C           -2.934174318650    -0.577799814137     0.438869420066    12.000000000000
         C           -2.537699318650     0.764981185863     0.321830420066    12.000000000000
         C           -1.182267318650     1.089922185863     0.168178420066    12.000000000000
         C            1.952009681350    -1.330684814137    -1.778322579934    12.000000000000
         H           -0.883497318650     2.138751185863     0.075660420066     1.007825032230
         H           -3.286933318650     1.562038185863     0.352519420066     1.007825032230
         O           -4.267456318650    -0.897531814137     0.595489420066    15.994914619570
         H           -2.259225318650    -2.638573814137     0.521484420066     1.007825032230
         H            0.150223681350    -2.055380814137     0.273281420066     1.007825032230
         H            3.644176681350     0.775628185863     1.399641420066     1.007825032230
         H            3.959224681350     2.294350185863     0.517374420066     1.007825032230
         H            4.341728681350    -0.168828814137    -0.707874579934     1.007825032230
         H            3.626835681350     1.159993185863    -1.643843579934     1.007825032230
         H            0.887560681350    -1.561579814137    -1.930911579934     1.007825032230
         H            2.400687681350    -1.087091814137    -2.757401579934     1.007825032230
         H            2.457471681350    -2.243997814137    -1.416186579934     1.007825032230
         H            1.477869681350     1.806844185863     1.655424420066     1.007825032230
         H            1.564018681350     2.575528185863     0.053960420066     1.007825032230
         H           -4.784630318650    -0.104224814137     0.593746420066     1.007825032230

  Nuclear repulsion =  744.703870898503169
  Reference energy  = -537.596807859908267

  ==> Basis Set <==

  Basis Set: CC-PVTZ
    Blend: CC-PVTZ
    Number of shells: 214
    Number of basis functions: 586
    Number of Cartesian functions: 665
    Spherical Harmonics?: true
    Max angular momentum: 3

  ==> CGRSolver (by Rob Parrish) <==

   Number of roots    =         1
   Preconditioning    =    JACOBI
   Convergence cutoff =     1E-06
   Maximum iterations =       100

  ==> CPHFRHamiltonian (by Rob Parrish) <== 

  ==> DiskDFJK: Density-Fitted J/K Matrices <==

    J tasked:                  Yes
    K tasked:                  Yes
    wK tasked:                  No
    OpenMP threads:              1
    Integrals threads:           1
    Memory [MiB]:              375
    Algorithm:                Disk
    Integral Cache:           NONE
    Schwarz Cutoff:          1E-12
    Fitting Condition:       1E-10

   => Auxiliary Basis Set <=

  Basis Set: (CC-PVTZ AUX)
    Blend: CC-PVTZ-JKFIT
    Number of shells: 465
    Number of basis functions: 1447
    Number of Cartesian functions: 1738
    Spherical Harmonics?: true
    Max angular momentum: 4

  ==> CPHF Iterations <==

  => Iterations <=

             Iter  Converged  Remaining    Residual
  CGR           1          0          1   8.101E-02
  CGR           2          0          1   2.046E-02
  CGR           3          0          1   1.154E-02
  CGR           4          0          1   5.571E-03
  CGR           5          0          1   2.433E-03
  CGR           6          0          1   1.122E-03
  CGR           7          0          1   3.677E-04
  CGR           8          0          1   1.184E-04
  CGR           9          0          1   4.469E-05
  CGR          10          0          1   1.525E-05
  CGR          11          0          1   6.593E-06
  CGR          12          0          1   2.254E-06
  CGR          13          1          0   8.422E-07

    CGRSolver converged.

  ==> DFCorrGrad: Density-Fitted Correlated Gradients <==

    OpenMP threads:              1
    Integrals threads:           1
    Memory [GiB]:            0.366
    Schwarz Cutoff:          0E+00
    Fitting Condition:       1E-10

   => Auxiliary Basis Set <=

  Basis Set: (CC-PVTZ AUX)
    Blend: CC-PVTZ-JKFIT
    Number of shells: 465
    Number of basis functions: 1447
    Number of Cartesian functions: 1738
    Spherical Harmonics?: true
    Max angular momentum: 4

	-----------------------------------------------------------
	 ==================> DF-MP2 Energies <==================== 
	-----------------------------------------------------------
	 Reference Energy          =    -537.5968078599082673 [Eh]
	 Singles Energy            =      -0.0000000000000000 [Eh]
	 Same-Spin Energy          =      -0.5787838450412816 [Eh]
	 Opposite-Spin Energy      =      -1.8122370932545744 [Eh]
	 Correlation Energy        =      -2.3910209382958558 [Eh]
	 Total Energy              =    -539.9878287982040774 [Eh]
	-----------------------------------------------------------
	 ================> DF-SCS-MP2 Energies <================== 
	-----------------------------------------------------------
	 SCS Same-Spin Scale       =       0.3333333333333333 [-]
	 SCS Opposite-Spin Scale   =       1.2000000000000000 [-]
	 SCS Same-Spin Energy      =      -0.1929279483470938 [Eh]
	 SCS Opposite-Spin Energy  =      -2.1746845119054892 [Eh]
	 SCS Correlation Energy    =      -2.3676124602525830 [Eh]
	 SCS Total Energy          =    -539.9644203201607979 [Eh]
	-----------------------------------------------------------


  -Total Gradient:
     Atom            X                  Y                   Z
    ------   -----------------  -----------------  -----------------
       1       -0.002370013385    -0.000813387948    -0.002435189966
       2        0.003021466574    -0.001140879591    -0.000345188385
       3       -0.003226190502     0.005093292541     0.006845937979
       4        0.006138361577    -0.006197824344    -0.006370955901
       5       -0.000945204673     0.001835812912     0.002632116236
       6       -0.000495272804    -0.000402227377    -0.001138551049
       7        0.006426628703    -0.007981074281     0.000003950520
       8        0.000451244825     0.001169005075    -0.000279055822
       9        0.000675013732    -0.009927265969     0.000434042453
      10       -0.008872549446     0.001605063619     0.000816168492
      11        0.001166656601     0.006687975026    -0.000475916644
      12       -0.000058891063     0.000743171123     0.000825684994
      13        0.003571372475     0.011095370794    -0.001128623198
      14       -0.006848063239     0.008226592454     0.000214322120
      15       -0.022700007716     0.020465973518     0.001073804088
      16       -0.001102375408    -0.012377247864     0.000946555973
      17        0.008838524609    -0.008048829897     0.000390443972
      18        0.003061042416    -0.005527865980     0.008344737095
      19        0.006068222296     0.008794198208     0.000112294478
      20        0.008315292030    -0.006525023914    -0.000029450636
      21        0.001568316561     0.005599367234    -0.008269315372
      22       -0.009401755911    -0.002221595118    -0.001697944499
      23        0.003955018343     0.002046597481    -0.008958365448
      24        0.004520123673    -0.008368150075     0.003127805545
      25       -0.003599423633     0.001768349861     0.009867917337
      26       -0.002549068965     0.008306007046    -0.004961854289
      27        0.004391532331    -0.013905404535     0.000454629932


*** tstop() called on skystd25.palmetto.clemson.edu at Sat Dec 11 17:57:14 2021
Module time:
	user time   =     440.37 seconds =       7.34 minutes
	system time =      13.69 seconds =       0.23 minutes
	total time  =        455 seconds =       7.58 minutes
Total time:
	user time   =     537.04 seconds =       8.95 minutes
	system time =      23.79 seconds =       0.40 minutes
	total time  =        561 seconds =       9.35 minutes

			-----------------------------------------
			 OPTKING 2.0: for geometry optimizations 
			  - R.A. King,  Bethel University        
			-----------------------------------------

	Internal coordinates to be generated automatically.
	Detected frag 1 with atoms:  1 2 3 4 5 6 7 8 9 10 11 12 13 14 15 16 17 18 19 20
	 21 22 23 24 25 26 27
	---Fragment 1 Bond Connectivity---
	 1 : 2 5 18 19
	 2 : 1 3 25 26
	 3 : 2 4 6
	 4 : 3 5 12
	 5 : 1 4 20 21
	 6 : 3 7 11
	 7 : 6 8 17
	 8 : 7 9 16
	 9 : 8 10 15
	 10 : 9 11 14
	 11 : 6 10 13
	 12 : 4 22 23 24
	 13 : 11
	 14 : 10
	 15 : 9 27
	 16 : 8
	 17 : 7
	 18 : 1
	 19 : 1
	 20 : 5
	 21 : 5
	 22 : 12
	 23 : 12
	 24 : 12
	 25 : 2
	 26 : 2
	 27 : 15

	---Fragment 1 Geometry and Gradient---
	 C           6.3176599709        2.6106532141        0.9987342792
	 C           3.4617357747        3.1416020047        1.1737096903
	 C           2.3166222139        0.8239681851       -0.0828712557
	 C           4.0646717923       -0.3521595609       -1.5689537705
	 C           6.5870026355        0.9968138749       -1.4063749627
	 C          -0.3689167158        0.1501485405        0.2147549399
	 C          -1.1458662740       -2.3915633338        0.4804145283
	 C          -3.7082782083       -3.0068619397        0.7740760785
	 C          -5.5447858666       -1.0918834041        0.8293430088
	 C          -4.7955567010        1.4456049324        0.6081713528
	 C          -2.2341614393        2.0596544293        0.3178111541
	 C           3.6887636920       -2.5146298580       -3.3605426388
	 H          -1.6695679648        4.0416539918        0.1429774725
	 H          -6.2114037649        2.9518243688        0.6661651578
	 O          -8.0643236946       -1.6960893176        1.1253119145
	 H          -4.2693171079       -4.9861818705        0.9854627326
	 H           0.2838816153       -3.8841068222        0.5164270391
	 H           6.8864958805        1.4657248465        2.6449389578
	 H           7.4818503169        4.3356934872        0.9776959582
	 H           8.2046781188       -0.3190402208       -1.3376890872
	 H           6.8537261398        2.1920694287       -3.1064141592
	 H           1.6772466075       -2.9509581718       -3.6488940586
	 H           4.5366422305       -2.0543058019       -5.2107338040
	 H           4.6439484388       -4.2405412948       -2.6762047786
	 H           2.7927689469        3.4144406627        3.1282987753
	 H           2.9555669629        4.8670428997        0.1019704155
	 H          -9.0416409138       -0.1969563542        1.1220181219
	            -0.0023700134       -0.0008133879       -0.0024351900
	             0.0030214666       -0.0011408796       -0.0003451884
	            -0.0032261905        0.0050932925        0.0068459380
	             0.0061383616       -0.0061978243       -0.0063709559
	            -0.0009452047        0.0018358129        0.0026321162
	            -0.0004952728       -0.0004022274       -0.0011385510
	             0.0064266287       -0.0079810743        0.0000039505
	             0.0004512448        0.0011690051       -0.0002790558
	             0.0006750137       -0.0099272660        0.0004340425
	            -0.0088725494        0.0016050636        0.0008161685
	             0.0011666566        0.0066879750       -0.0004759166
	            -0.0000588911        0.0007431711        0.0008256850
	             0.0035713725        0.0110953708       -0.0011286232
	            -0.0068480632        0.0082265925        0.0002143221
	            -0.0227000077        0.0204659735        0.0010738041
	            -0.0011023754       -0.0123772479        0.0009465560
	             0.0088385246       -0.0080488299        0.0003904440
	             0.0030610424       -0.0055278660        0.0083447371
	             0.0060682223        0.0087941982        0.0001122945
	             0.0083152920       -0.0065250239       -0.0000294506
	             0.0015683166        0.0055993672       -0.0082693154
	            -0.0094017559       -0.0022215951       -0.0016979445
	             0.0039550183        0.0020465975       -0.0089583654
	             0.0045201237       -0.0083681501        0.0031278055
	            -0.0035994236        0.0017683499        0.0098679173
	            -0.0025490690        0.0083060070       -0.0049618543
	             0.0043915323       -0.0139054045        0.0004546299

	Previous optimization step data not found.  Starting new optimization.

	---Fragment 1 Intrafragment Coordinates---
	 - Coordinate -           - BOHR/RAD -       - ANG/DEG -
	 R(1,2)           =         2.910125	       1.539972
	 R(1,5)           =         2.908878	       1.539312
	 R(1,18)          =         2.084328	       1.102979
	 R(1,19)          =         2.081237	       1.101343
	 R(2,3)           =         2.874319	       1.521024
	 R(2,25)          =         2.083837	       1.102719
	 R(2,26)          =         2.093318	       1.107736
	 R(3,4)           =         2.578254	       1.364353
	 R(3,6)           =         2.784732	       1.473617
	 R(4,5)           =         2.865016	       1.516101
	 R(4,12)          =         2.833262	       1.499298
	 R(5,20)          =         2.086400	       1.104075
	 R(5,21)          =         2.095211	       1.108738
	 R(6,7)           =         2.671053	       1.413460
	 R(6,11)          =         2.671324	       1.413604
	 R(7,8)           =         2.651563	       1.403147
	 R(7,17)          =         2.067163	       1.093895
	 R(8,9)           =         2.653857	       1.404361
	 R(8,16)          =         2.068129	       1.094407
	 R(9,10)          =         2.655016	       1.404974
	 R(9,15)          =         2.607822	       1.380000
	 R(10,11)         =         2.649927	       1.402281
	 R(10,14)         =         2.068014	       1.094346
	 R(11,13)         =         2.068249	       1.094470
	 R(12,22)         =         2.078396	       1.099840
	 R(12,23)         =         2.086625	       1.104194
	 R(12,24)         =         2.087934	       1.104887
	 R(15,27)         =         1.789570	       0.946999
	 B(1,2,3)         =         1.790127	     102.566700
	 B(1,2,25)        =         1.977226	     113.286730
	 B(1,2,26)        =         1.935744	     110.909973
	 B(1,5,4)         =         1.799406	     103.098356
	 B(1,5,20)        =         1.976291	     113.233108
	 B(1,5,21)        =         1.945680	     111.479279
	 B(2,1,5)         =         1.815021	     103.993068
	 B(2,1,18)        =         1.897117	     108.696781
	 B(2,1,19)        =         1.980503	     113.474479
	 B(2,3,4)         =         1.928043	     110.468727
	 B(2,3,6)         =         2.132448	     122.180296
	 B(3,2,25)        =         1.968972	     112.813790
	 B(3,2,26)        =         1.922464	     110.149081
	 B(3,4,5)         =         1.927736	     110.451137
	 B(3,4,12)        =         2.242975	     128.512983
	 B(3,6,7)         =         2.119286	     121.426120
	 B(3,6,11)        =         2.099640	     120.300495
	 B(4,3,6)         =         2.220651	     127.233923
	 B(4,5,20)        =         1.968736	     112.800279
	 B(4,5,21)        =         1.912013	     109.550255
	 B(4,12,22)       =         1.956670	     112.108928
	 B(4,12,23)       =         1.916015	     109.779573
	 B(4,12,24)       =         1.942233	     111.281772
	 B(5,1,18)        =         1.899693	     108.844371
	 B(5,1,19)        =         1.981979	     113.559042
	 B(5,4,12)        =         2.108376	     120.801049
	 B(6,7,8)         =         2.109388	     120.859024
	 B(6,7,17)        =         2.080147	     119.183628
	 B(6,11,10)       =         2.110063	     120.897728
	 B(6,11,13)       =         2.084192	     119.415378
	 B(7,6,11)        =         2.063785	     118.246186
	 B(7,8,9)         =         2.098568	     120.239106
	 B(7,8,16)        =         2.089281	     119.706964
	 B(8,7,17)        =         2.093145	     119.928351
	 B(8,9,10)        =         2.085899	     119.513219
	 B(8,9,15)        =         2.098751	     120.249566
	 B(9,8,16)        =         2.095250	     120.048967
	 B(9,10,11)       =         2.098279	     120.222516
	 B(9,10,14)       =         2.095045	     120.037222
	 B(9,15,27)       =         1.910634	     109.471244
	 B(10,9,15)       =         2.098475	     120.233743
	 B(10,11,13)      =         2.088843	     119.681864
	 B(11,10,14)      =         2.089860	     119.740132
	 B(18,1,19)       =         1.886638	     108.096378
	 B(20,5,21)       =         1.862719	     106.725958
	 B(22,12,23)      =         1.892897	     108.455036
	 B(22,12,24)      =         1.890932	     108.342411
	 B(23,12,24)      =         1.861979	     106.683530
	 B(25,2,26)       =         1.869917	     107.138345
	 D(1,2,3,4)       =        -0.348852	     -19.987768
	 D(1,2,3,6)       =         2.856778	     163.681328
	 D(1,5,4,3)       =         0.300808	      17.235016
	 D(1,5,4,12)      =        -2.930014	    -167.877438
	 D(2,1,5,4)       =        -0.499803	     -28.636594
	 D(2,1,5,20)      =        -2.632586	    -150.836039
	 D(2,1,5,21)      =         1.549857	      88.800282
	 D(2,3,4,5)       =         0.031048	       1.778925
	 D(2,3,4,12)      =        -3.012567	    -172.607364
	 D(2,3,6,7)       =        -2.462500	    -141.090867
	 D(2,3,6,11)      =         0.645400	      36.978697
	 D(3,2,1,5)       =         0.514363	      29.470838
	 D(3,2,1,18)      =        -1.507311	     -86.362554
	 D(3,2,1,19)      =         2.676299	     153.340666
	 D(3,4,5,20)      =         2.438658	     139.724821
	 D(3,4,5,21)      =        -1.772435	    -101.553028
	 D(3,4,12,22)     =         0.167316	       9.586503
	 D(3,4,12,23)     =         2.272366	     130.196980
	 D(3,4,12,24)     =        -1.953574	    -111.931530
	 D(3,6,7,8)       =         3.136447	     179.705195
	 D(3,6,7,17)      =         0.029066	       1.665353
	 D(3,6,11,10)     =        -3.138209	    -179.806114
	 D(3,6,11,13)     =         0.017671	       1.012458
	 D(4,3,2,25)      =        -2.482003	    -142.208323
	 D(4,3,2,26)      =         1.712697	      98.130327
	 D(4,3,6,7)       =         0.754466	      43.227732
	 D(4,3,6,11)      =        -2.420819	    -138.702704
	 D(4,5,1,18)      =         1.520059	      87.092954
	 D(4,5,1,19)      =        -2.660781	    -152.451540
	 D(5,1,2,25)      =         2.641906	     151.370088
	 D(5,1,2,26)      =        -1.537774	     -88.107935
	 D(5,4,3,6)       =         3.104559	     177.878117
	 D(5,4,12,22)     =        -2.867367	    -164.288012
	 D(5,4,12,23)     =        -0.762317	     -43.677535
	 D(5,4,12,24)     =         1.294929	      74.193955
	 D(6,3,2,25)      =         0.723627	      41.460773
	 D(6,3,2,26)      =        -1.364858	     -78.200577
	 D(6,3,4,12)      =         0.060944	       3.491829
	 D(6,7,8,9)       =        -0.009298	      -0.532741
	 D(6,7,8,16)      =        -3.136753	    -179.722706
	 D(6,11,10,9)     =         0.012040	       0.689867
	 D(6,11,10,14)    =        -3.131840	    -179.441216
	 D(7,6,11,10)     =        -0.029252	      -1.676026
	 D(7,6,11,13)     =         3.126627	     179.142545
	 D(7,8,9,10)      =        -0.008597	      -0.492558
	 D(7,8,9,15)      =        -3.138386	    -179.816299
	 D(8,7,6,11)      =         0.027876	       1.597200
	 D(8,9,10,11)     =         0.007241	       0.414863
	 D(8,9,10,14)     =        -3.132057	    -179.453662
	 D(8,9,15,27)     =         3.141593	     180.000000
	 D(9,8,7,17)      =         3.097830	     177.492594
	 D(9,10,11,13)    =         3.139309	     179.869135
	 D(10,9,8,16)     =         3.118810	     178.694624
	 D(10,9,15,27)    =         0.011888	       0.681149
	 D(11,6,7,17)     =        -3.079505	    -176.442642
	 D(11,10,9,15)    =         3.137032	     179.738713
	 D(12,4,5,20)     =        -0.792164	     -45.387633
	 D(12,4,5,21)     =         1.279929	      73.334518
	 D(13,11,10,14)   =        -0.004572	      -0.261949
	 D(14,10,9,15)    =        -0.002266	      -0.129813
	 D(15,9,8,16)     =        -0.010980	      -0.629117
	 D(16,8,7,17)     =        -0.029625	      -1.697371
	 D(18,1,2,25)     =         0.620232	      35.536695
	 D(18,1,2,26)     =         2.723738	     156.058672
	 D(18,1,5,20)     =        -0.612724	     -35.106492
	 D(18,1,5,21)     =        -2.713466	    -155.470171
	 D(19,1,2,25)     =        -1.479343	     -84.760085
	 D(19,1,2,26)     =         0.624163	      35.761892
	 D(19,1,5,20)     =         1.489621	      85.349014
	 D(19,1,5,21)     =        -0.611121	     -35.014665
	 R(7,12)          =         6.175900	       3.268146

	Current energy   :      -539.9878287982

	Generating empirical Hessian (Schlegel '84) for each fragment.
	Taking RFO optimization step.
	Going to follow RFO solution 1.
	Using RFO vector 1.
	Norm of target step-size    0.19501
	Projected energy change by RFO approximation:        -0.0132851691

	Back-transformation to cartesian coordinates...
	Successfully converged to displaced geometry.

	--- Internal Coordinate Step in ANG or DEG, aJ/ANG or AJ/DEG ---
	 ---------------------------------------------------------------------------
	   Coordinate                Previous        Force       Change         New 
	   ----------                --------       ------       ------       ------
	    1 R(1,2)          =      1.539972    -0.072248    -0.013923     1.526049
	    2 R(1,5)          =      1.539312    -0.073722    -0.013936     1.525376
	    3 R(1,18)         =      1.102979    -0.086198    -0.015983     1.086996
	    4 R(1,19)         =      1.101343    -0.088009    -0.016235     1.085108
	    5 R(2,3)          =      1.521024    -0.072816    -0.015680     1.505344
	    6 R(2,25)         =      1.102719    -0.087684    -0.016245     1.086474
	    7 R(2,26)         =      1.107736    -0.082413    -0.015511     1.092225
	    8 R(3,4)          =      1.364353    -0.134617    -0.018769     1.345584
	    9 R(3,6)          =      1.473617    -0.105137    -0.020182     1.453435
	   10 R(4,5)          =      1.516101    -0.075503    -0.015765     1.500336
	   11 R(4,12)         =      1.499298    -0.078343    -0.015616     1.483682
	   12 R(5,20)         =      1.104075    -0.087013    -0.016190     1.087885
	   13 R(5,21)         =      1.108738    -0.083241    -0.015716     1.093022
	   14 R(6,7)          =      1.413460    -0.126410    -0.018802     1.394659
	   15 R(6,11)         =      1.413604    -0.142607    -0.020597     1.393006
	   16 R(7,8)          =      1.403147    -0.142452    -0.019791     1.383356
	   17 R(7,17)         =      1.093895    -0.098300    -0.017710     1.076186
	   18 R(8,9)          =      1.404361    -0.164855    -0.022809     1.381552
	   19 R(8,16)         =      1.094407    -0.100855    -0.018200     1.076207
	   20 R(9,10)         =      1.404974    -0.117629    -0.016209     1.388764
	   21 R(9,15)         =      1.380000    -0.134638    -0.017163     1.362837
	   22 R(10,11)        =      1.402281    -0.140692    -0.019355     1.382926
	   23 R(10,14)        =      1.094346    -0.088041    -0.015884     1.078462
	   24 R(11,13)        =      1.094470    -0.096418    -0.017402     1.077068
	   25 R(12,22)        =      1.099840    -0.080749    -0.014825     1.085015
	   26 R(12,23)        =      1.104194    -0.082403    -0.015338     1.088857
	   27 R(12,24)        =      1.104887    -0.082472    -0.015384     1.089503
	   28 R(15,27)        =      0.946999     0.115736     0.012462     0.959461
	   29 B(1,2,3)        =    102.566700    -0.000003     0.005637   102.572337
	   30 B(1,2,25)       =    113.286730    -0.000029    -0.092930   113.193799
	   31 B(1,2,26)       =    110.909973     0.000016    -0.025699   110.884274
	   32 B(1,5,4)        =    103.098356    -0.000023    -0.032164   103.066191
	   33 B(1,5,20)       =    113.233108    -0.000009    -0.036948   113.196159
	   34 B(1,5,21)       =    111.479279     0.000006    -0.070042   111.409237
	   35 B(2,1,5)        =    103.993068    -0.000133    -0.099541   103.893528
	   36 B(2,1,18)       =    108.696781     0.000017    -0.083886   108.612894
	   37 B(2,1,19)       =    113.474479     0.000056     0.069691   113.544170
	   38 B(2,3,4)        =    110.468727     0.000045     0.071670   110.540397
	   39 B(2,3,6)        =    122.180296    -0.000360    -0.453421   121.726876
	   40 B(3,2,25)       =    112.813790     0.000008    -0.040374   112.773416
	   41 B(3,2,26)       =    110.149081    -0.000008    -0.006491   110.142590
	   42 B(3,4,5)        =    110.451137     0.000111     0.178270   110.629407
	   43 B(3,4,12)       =    128.512983     0.000149     0.087424   128.600407
	   44 B(3,6,7)        =    121.426120     0.000336     0.563782   121.989901
	   45 B(3,6,11)       =    120.300495    -0.000114    -0.052639   120.247856
	   46 B(4,3,6)        =    127.233923     0.000314     0.382061   127.615984
	   47 B(4,5,20)       =    112.800279     0.000019     0.012390   112.812669
	   48 B(4,5,21)       =    109.550255    -0.000009    -0.068116   109.482139
	   49 B(4,12,22)      =    112.108928    -0.000032    -0.142755   111.966172
	   50 B(4,12,23)      =    109.779573    -0.000011    -0.031970   109.747603
	   51 B(4,12,24)      =    111.281772    -0.000013    -0.068784   111.212988
	   52 B(5,1,18)       =    108.844371     0.000018    -0.089575   108.754796
	   53 B(5,1,19)       =    113.559042     0.000051     0.046373   113.605414
	   54 B(5,4,12)       =    120.801049    -0.000262    -0.270939   120.530110
	   55 B(6,7,8)        =    120.859024     0.000263     0.745868   121.604891
	   56 B(6,7,17)       =    119.183628    -0.000069    -0.097632   119.085996
	   57 B(6,11,10)      =    120.897728     0.000059     0.127146   121.024874
	   58 B(6,11,13)      =    119.415378     0.000003     0.076131   119.491509
	   59 B(7,6,11)       =    118.246186    -0.000222    -0.513112   117.733074
	   60 B(7,8,9)        =    120.239106    -0.000146    -0.514310   119.724796
	   61 B(7,8,16)       =    119.706964     0.000257     1.056056   120.763019
	   62 B(8,7,17)       =    119.928351    -0.000193    -0.639871   119.288479
	   63 B(8,9,10)       =    119.513219     0.000059     0.183029   119.696248
	   64 B(8,9,15)       =    120.249566    -0.000818    -2.352310   117.897256
	   65 B(9,8,16)       =    120.048967    -0.000110    -0.541600   119.507366
	   66 B(9,10,11)      =    120.222516    -0.000012    -0.032769   120.189747
	   67 B(9,10,14)      =    120.037222    -0.000045    -0.205541   119.831682
	   68 B(9,15,27)      =    109.471244    -0.000536    -2.339975   107.131269
	   69 B(10,9,15)      =    120.233743     0.000759     2.169126   122.402869
	   70 B(10,11,13)     =    119.681864    -0.000061    -0.203085   119.478778
	   71 B(11,10,14)     =    119.740132     0.000057     0.238289   119.978420
	   72 B(18,1,19)      =    108.096378    -0.000011     0.135887   108.232264
	   73 B(20,5,21)      =    106.725958     0.000015     0.179988   106.905946
	   74 B(22,12,23)     =    108.455036     0.000027     0.138396   108.593432
	   75 B(22,12,24)     =    108.342411     0.000018     0.053940   108.396352
	   76 B(23,12,24)     =    106.683530     0.000014     0.067280   106.750809
	   77 B(25,2,26)      =    107.138345     0.000015     0.149997   107.288342
	   78 D(1,2,3,4)      =    -19.987768    -0.000007     0.027349   -19.960419
	   79 D(1,2,3,6)      =    163.681328    -0.000007     0.004955   163.686283
	   80 D(1,5,4,3)      =     17.235016     0.000002    -0.177092    17.057924
	   81 D(1,5,4,12)     =   -167.877438     0.000001    -0.226427  -168.103866
	   82 D(2,1,5,4)      =    -28.636594     0.000008     0.259444   -28.377150
	   83 D(2,1,5,20)     =   -150.836039     0.000007     0.285493  -150.550547
	   84 D(2,1,5,21)     =     88.800282     0.000003     0.129032    88.929314
	   85 D(2,3,4,5)      =      1.778925     0.000003     0.094708     1.873632
	   86 D(2,3,4,12)     =   -172.607364     0.000011     0.171817  -172.435546
	   87 D(2,3,6,7)      =   -141.090867     0.000005    -0.636365  -141.727232
	   88 D(2,3,6,11)     =     36.978697    -0.000002    -0.715350    36.263347
	   89 D(3,2,1,5)      =     29.470838    -0.000005    -0.197191    29.273647
	   90 D(3,2,1,18)     =    -86.362554     0.000004    -0.008822   -86.371376
	   91 D(3,2,1,19)     =    153.340666    -0.000004    -0.167222   153.173444
	   92 D(3,4,5,20)     =    139.724821    -0.000001    -0.235970   139.488851
	   93 D(3,4,5,21)     =   -101.553028     0.000005    -0.047742  -101.600769
	   94 D(3,4,12,22)    =      9.586503    -0.000004    -0.170109     9.416394
	   95 D(3,4,12,23)    =    130.196980    -0.000002    -0.110960   130.086020
	   96 D(3,4,12,24)    =   -111.931530    -0.000002    -0.090100  -112.021630
	   97 D(3,6,7,8)      =    179.705195    -0.000002     0.050666   179.755861
	   98 D(3,6,7,17)     =      1.665353    -0.000005    -0.245006     1.420348
	   99 D(3,6,11,10)    =   -179.806114     0.000001    -0.080179  -179.886292
	  100 D(3,6,11,13)    =      1.012458     0.000001    -0.094325     0.918133
	  101 D(4,3,2,25)     =   -142.208323    -0.000000     0.157152  -142.051171
	  102 D(4,3,2,26)     =     98.130327    -0.000004    -0.002251    98.128076
	  103 D(4,3,6,7)      =     43.227732     0.000009    -0.642758    42.584973
	  104 D(4,3,6,11)     =   -138.702704     0.000003    -0.721743  -139.424448
	  105 D(4,5,1,18)     =     87.092954    -0.000001     0.074741    87.167695
	  106 D(4,5,1,19)     =   -152.451540     0.000006     0.214395  -152.237146
	  107 D(5,1,2,25)     =    151.370088    -0.000007    -0.291609   151.078479
	  108 D(5,1,2,26)     =    -88.107935    -0.000004    -0.181149   -88.289084
	  109 D(5,4,3,6)      =    177.878117    -0.000005     0.079342   177.957460
	  110 D(5,4,12,22)    =   -164.288012     0.000000    -0.110615  -164.398628
	  111 D(5,4,12,23)    =    -43.677535     0.000002    -0.051466   -43.729001
	  112 D(5,4,12,24)    =     74.193955     0.000002    -0.030606    74.163349
	  113 D(6,3,2,25)     =     41.460773     0.000000     0.134758    41.595531
	  114 D(6,3,2,26)     =    -78.200577    -0.000004    -0.024645   -78.225222
	  115 D(6,3,4,12)     =      3.491829     0.000003     0.156452     3.648281
	  116 D(6,7,8,9)      =     -0.532741    -0.000002    -0.002974    -0.535715
	  117 D(6,7,8,16)     =   -179.722706    -0.000001    -0.010558  -179.733264
	  118 D(6,11,10,9)    =      0.689867     0.000001     0.052201     0.742068
	  119 D(6,11,10,14)   =   -179.441216     0.000001     0.041762  -179.399454
	  120 D(7,6,11,10)    =     -1.676026    -0.000003    -0.135695    -1.811720
	  121 D(7,6,11,13)    =    179.142545    -0.000002    -0.149841   178.992705
	  122 D(7,8,9,10)     =     -0.492558    -0.000001    -0.101892    -0.594451
	  123 D(7,8,9,15)     =   -179.816299    -0.000002    -0.102056  -179.918355
	  124 D(8,7,6,11)     =      1.597200     0.000003     0.119774     1.716974
	  125 D(8,9,10,11)    =      0.414863     0.000002     0.078490     0.493353
	  126 D(8,9,10,14)    =   -179.453662     0.000002     0.088329  -179.365333
	  127 D(8,9,15,27)    =    180.000000    -0.000001    -0.121223   179.878777
	  128 D(9,8,7,17)     =    177.492594     0.000002     0.303914   177.796508
	  129 D(9,10,11,13)   =    179.869135     0.000001     0.068610   179.937744
	  130 D(10,9,8,16)    =    178.694624    -0.000001    -0.081380   178.613243
	  131 D(10,9,15,27)   =      0.681149    -0.000000    -0.106767     0.574382
	  132 D(11,6,7,17)    =   -176.442642     0.000000    -0.175898  -176.618540
	  133 D(11,10,9,15)   =    179.738713    -0.000001     0.046923   179.785635
	  134 D(12,4,5,20)    =    -45.387633    -0.000003    -0.285306   -45.672939
	  135 D(12,4,5,21)    =     73.334518     0.000003    -0.097078    73.237441
	  136 D(13,11,10,14)  =     -0.261949     0.000001     0.058170    -0.203778
	  137 D(14,10,9,15)   =     -0.129813     0.000000     0.056762    -0.073050
	  138 D(15,9,8,16)    =     -0.629117    -0.000002    -0.081544    -0.710661
	  139 D(16,8,7,17)    =     -1.697371     0.000003     0.296330    -1.401041
	  140 D(18,1,2,25)    =     35.536695     0.000002    -0.103239    35.433456
	  141 D(18,1,2,26)    =    156.058672     0.000005     0.007221   156.065893
	  142 D(18,1,5,20)    =    -35.106492    -0.000002     0.100790   -35.005701
	  143 D(18,1,5,21)    =   -155.470171    -0.000006    -0.055670  -155.525841
	  144 D(19,1,2,25)    =    -84.760085    -0.000006    -0.261639   -85.021724
	  145 D(19,1,2,26)    =     35.761892    -0.000003    -0.151179    35.610713
	  146 D(19,1,5,20)    =     85.349014     0.000005     0.240444    85.589458
	  147 D(19,1,5,21)    =    -35.014665     0.000001     0.083983   -34.930681
	  148 R(7,12)         =      3.268146    -0.022000    -0.024430     3.243716
	 ---------------------------------------------------------------------------
	Successfully symmetrized geometry.

  ==> Convergence Check <==

  Measures of convergence in internal coordinates in au.
  Criteria marked as inactive (o), active & met (*), and active & unmet ( ).
  --------------------------------------------------------------------------------------------- ~
   Step     Total Energy     Delta E     MAX Force     RMS Force      MAX Disp      RMS Disp    ~
  --------------------------------------------------------------------------------------------- ~
    Convergence Criteria    1.00e-06 *    3.00e-04 *             o    1.20e-03 *             o  ~
  --------------------------------------------------------------------------------------------- ~
      1    -539.98782880   -5.40e+02      2.00e-02      5.77e-03 o    4.62e-02      1.60e-02 o  ~
  ---------------------------------------------------------------------------------------------

	Writing optimization data to binary file.
	Structure for next step:
	Cartesian Geometry (in Angstrom)
	    C     3.3097398344   1.3643549060   0.5313463923
	    C     1.8111856883   1.6413473748   0.6115638893
	    C     1.2174119926   0.4250378475  -0.0472860746
	    C     2.1348736418  -0.1915542832  -0.8145374016
	    C     3.4577107226   0.5105212474  -0.7239799469
	    C    -0.1865633042   0.0816279142   0.1056686124
	    C    -0.6139926696  -1.2393859520   0.2371965018
	    C    -1.9520252471  -1.5568762896   0.3873369088
	    C    -2.8958427134  -0.5485009188   0.4200992474
	    C    -2.4915877178   0.7759144589   0.3144201228
	    C    -1.1516047389   1.0843392077   0.1667592436
	    C     1.9457848615  -1.3248471795  -1.7532630471
	    H    -0.8509238390   2.1153375458   0.0848518654
	    H    -3.2255104109   1.5653248050   0.3500399251
	    O    -4.2030019974  -0.9032455689   0.5711489311
	    H    -2.2664372544  -2.5807964932   0.4919988850
	    H     0.1186146871  -2.0276349744   0.2484191309
	    H     3.5994173084   0.7702188840   1.3942775849
	    H     3.9167330111   2.2637273758   0.5191607894
	    H     4.2984569289  -0.1782739375  -0.6770566686
	    H     3.6033555792   1.1297625234  -1.6128133398
	    H     0.8963198537  -1.5519362344  -1.9091833893
	    H     2.3956923824  -1.0846886177  -2.7153004374
	    H     2.4419877060  -2.2243458419  -1.3903561990
	    H     1.4562878941   1.7842767588   1.6284435948
	    H     1.5505265765   2.5396125839   0.0475322987
	    H    -4.7170494332  -0.0931191335   0.5752019338
			--------------------------
			 OPTKING Finished Execution 
			--------------------------

    Structure for next step:
    Molecular point group: c1
    Full point group: C1

    Geometry (in Angstrom), charge = 0, multiplicity = 1:

    C            3.303333784046     1.362845102383     0.534956938203
    C            1.804779632028     1.639837572241     0.615174435439
    C            1.211005934024     0.423528040164    -0.043675531016
    C            2.128467586832    -0.193064092928    -0.810926861025
    C            3.451304672769     0.509011440423    -0.720369406007
    C           -0.192969368341     0.080118105594     0.109279156621
    C           -0.620398735441    -1.240895765812     0.240807046499
    C           -1.958431318170    -1.558386104735     0.390947454077
    C           -2.902248788185    -0.550010729936     0.423709792812
    C           -2.497993790976     0.774404652939     0.318030667836
    C           -1.158010806798     1.082829403029     0.170369788047
    C            1.939378805791    -1.326356993683    -1.749652510202
    H           -0.857329905723     2.113827745123     0.088462409490
    H           -3.231916486961     1.563815002198     0.353650470280
    O           -4.209408077297    -0.904755381434     0.574759477132
    H           -2.272843326696    -2.582306312332     0.495609430714
    H            0.112208624222    -2.029144791330     0.252029675630
    H            3.593011259177     0.768709078070     1.397888134122
    H            3.910326963078     2.262217575690     0.522771335204
    H            4.292050882404    -0.179783747121    -0.673446127465
    H            3.596949530001     1.128252718847    -1.609202802385
    H            0.889913793846    -1.553446049452    -1.905572852996
    H            2.389286328463    -1.086198430952    -2.711689904334
    H            2.435581652212    -2.225855659659    -1.386745660686
    H            1.449881836482     1.782766956813     1.632054145002
    H            1.544120519252     2.538102784885     0.051142842641
    H           -4.723455515175    -0.094628942884     0.578812479796


Scratch directory: /local_scratch/pbs.4129854.pbs02/
gradient() will perform analytic gradient computation.

*** tstart() called on skystd25.palmetto.clemson.edu
*** at Sat Dec 11 17:57:15 2021

   => Loading Basis Set <=

    Name: CC-PVTZ
    Role: ORBITAL
    Keyword: BASIS
    atoms 1-12         entry C          line   186 file /home/maxbuskirk/.conda/envs/psifour/share/psi4/basis/cc-pvtz.gbs 
    atoms 13-14, 16-27 entry H          line    23 file /home/maxbuskirk/.conda/envs/psifour/share/psi4/basis/cc-pvtz.gbs 
    atoms 15           entry O          line   262 file /home/maxbuskirk/.conda/envs/psifour/share/psi4/basis/cc-pvtz.gbs 


         ---------------------------------------------------------
                                   SCF
               by Justin Turney, Rob Parrish, Andy Simmonett
                          and Daniel G. A. Smith
                              RHF Reference
                        1 Threads,    500 MiB Core
         ---------------------------------------------------------

  ==> Geometry <==

    Molecular point group: c1
    Full point group: C1

    Geometry (in Angstrom), charge = 0, multiplicity = 1:

       Center              X                  Y                   Z               Mass       
    ------------   -----------------  -----------------  -----------------  -----------------
         C            3.303333784046     1.362845102383     0.534956938203    12.000000000000
         C            1.804779632028     1.639837572241     0.615174435439    12.000000000000
         C            1.211005934024     0.423528040164    -0.043675531016    12.000000000000
         C            2.128467586832    -0.193064092928    -0.810926861025    12.000000000000
         C            3.451304672769     0.509011440423    -0.720369406007    12.000000000000
         C           -0.192969368341     0.080118105594     0.109279156621    12.000000000000
         C           -0.620398735441    -1.240895765812     0.240807046499    12.000000000000
         C           -1.958431318170    -1.558386104735     0.390947454077    12.000000000000
         C           -2.902248788185    -0.550010729936     0.423709792812    12.000000000000
         C           -2.497993790976     0.774404652939     0.318030667836    12.000000000000
         C           -1.158010806798     1.082829403029     0.170369788047    12.000000000000
         C            1.939378805791    -1.326356993683    -1.749652510202    12.000000000000
         H           -0.857329905723     2.113827745123     0.088462409490     1.007825032230
         H           -3.231916486961     1.563815002198     0.353650470280     1.007825032230
         O           -4.209408077297    -0.904755381434     0.574759477132    15.994914619570
         H           -2.272843326696    -2.582306312332     0.495609430714     1.007825032230
         H            0.112208624222    -2.029144791330     0.252029675630     1.007825032230
         H            3.593011259177     0.768709078070     1.397888134122     1.007825032230
         H            3.910326963078     2.262217575690     0.522771335204     1.007825032230
         H            4.292050882404    -0.179783747121    -0.673446127465     1.007825032230
         H            3.596949530001     1.128252718847    -1.609202802385     1.007825032230
         H            0.889913793846    -1.553446049452    -1.905572852996     1.007825032230
         H            2.389286328463    -1.086198430952    -2.711689904334     1.007825032230
         H            2.435581652212    -2.225855659659    -1.386745660686     1.007825032230
         H            1.449881836482     1.782766956813     1.632054145002     1.007825032230
         H            1.544120519252     2.538102784885     0.051142842641     1.007825032230
         H           -4.723455515175    -0.094628942884     0.578812479796     1.007825032230

  Running in c1 symmetry.

  Rotational constants: A =      0.06800  B =      0.01446  C =      0.01261 [cm^-1]
  Rotational constants: A =   2038.71420  B =    433.38374  C =    378.12503 [MHz]
  Nuclear repulsion =  754.035982894151289

  Charge       = 0
  Multiplicity = 1
  Electrons    = 94
  Nalpha       = 47
  Nbeta        = 47

  ==> Algorithm <==

  SCF Algorithm Type is DF.
  DIIS enabled.
  MOM disabled.
  Fractional occupation disabled.
  Guess Type is READ.
  Energy threshold   = 1.00e-10
  Density threshold  = 1.00e-10
  Integral threshold = 1.00e-12

  ==> Primary Basis <==

  Basis Set: CC-PVTZ
    Blend: CC-PVTZ
    Number of shells: 214
    Number of basis functions: 586
    Number of Cartesian functions: 665
    Spherical Harmonics?: true
    Max angular momentum: 3

   => Loading Basis Set <=

    Name: (CC-PVTZ AUX)
    Role: JKFIT
    Keyword: DF_BASIS_SCF
    atoms 1-12         entry C          line   125 file /home/maxbuskirk/.conda/envs/psifour/share/psi4/basis/cc-pvtz-jkfit.gbs 
    atoms 13-14, 16-27 entry H          line    51 file /home/maxbuskirk/.conda/envs/psifour/share/psi4/basis/cc-pvtz-jkfit.gbs 
    atoms 15           entry O          line   229 file /home/maxbuskirk/.conda/envs/psifour/share/psi4/basis/cc-pvtz-jkfit.gbs 

   => Loading Basis Set <=

    Name: CC-PVTZ
    Role: ORBITAL
    Keyword: BASIS
    atoms 1-12         entry C          line   186 file /home/maxbuskirk/.conda/envs/psifour/share/psi4/basis/cc-pvtz.gbs 
    atoms 13-14, 16-27 entry H          line    23 file /home/maxbuskirk/.conda/envs/psifour/share/psi4/basis/cc-pvtz.gbs 
    atoms 15           entry O          line   262 file /home/maxbuskirk/.conda/envs/psifour/share/psi4/basis/cc-pvtz.gbs 

  Reading orbitals from file /local_scratch/pbs.4129854.pbs02/pOH.mol.3177325.180.npy, no projection.

  ==> Integral Setup <==

  ==> DiskDFJK: Density-Fitted J/K Matrices <==

    J tasked:                  Yes
    K tasked:                  Yes
    wK tasked:                  No
    OpenMP threads:              1
    Integrals threads:           1
    Memory [MiB]:              375
    Algorithm:                Disk
    Integral Cache:           NONE
    Schwarz Cutoff:          1E-12
    Fitting Condition:       1E-10

   => Auxiliary Basis Set <=

  Basis Set: (CC-PVTZ AUX)
    Blend: CC-PVTZ-JKFIT
    Number of shells: 465
    Number of basis functions: 1447
    Number of Cartesian functions: 1738
    Spherical Harmonics?: true
    Max angular momentum: 4

  Minimum eigenvalue in the overlap matrix is 3.0285658799E-05.
  Reciprocal condition number of the overlap matrix is 3.3319797184E-06.
    Using symmetric orthogonalization.

  ==> Pre-Iterations <==

  SCF Guess: Orbitals guess was supplied from a previous computation.

   -------------------------------------------------------
    Irrep   Nso     Nmo     Nalpha   Nbeta   Ndocc  Nsocc
   -------------------------------------------------------
     A        586     586      47      47      47       0
   -------------------------------------------------------
    Total     586     586      47      47      47       0
   -------------------------------------------------------

  ==> Iterations <==

                           Total Energy        Delta E     RMS |[F,P]|

   @DF-RHF iter   0:  -537.73095094589519   -5.37731e+02   2.46000e-04 
   @DF-RHF iter   1:  -537.60384670151564    1.27104e-01   3.45636e-05 DIIS
   @DF-RHF iter   2:  -537.60408219641181   -2.35495e-04   1.87553e-05 DIIS
   @DF-RHF iter   3:  -537.60414239121258   -6.01948e-05   4.95522e-06 DIIS
   @DF-RHF iter   4:  -537.60414815701972   -5.76581e-06   1.96569e-06 DIIS
   @DF-RHF iter   5:  -537.60414909209794   -9.35078e-07   5.51361e-07 DIIS
   @DF-RHF iter   6:  -537.60414923837300   -1.46275e-07   2.41493e-07 DIIS
   @DF-RHF iter   7:  -537.60414927434965   -3.59767e-08   1.19004e-07 DIIS
   @DF-RHF iter   8:  -537.60414928563773   -1.12881e-08   5.08162e-08 DIIS
   @DF-RHF iter   9:  -537.60414928834746   -2.70973e-09   2.07357e-08 DIIS
   @DF-RHF iter  10:  -537.60414928873581   -3.88354e-10   7.88344e-09 DIIS
   @DF-RHF iter  11:  -537.60414928877321   -3.74030e-11   2.56809e-09 DIIS
   @DF-RHF iter  12:  -537.60414928877924   -6.02540e-12   1.00976e-09 DIIS
   @DF-RHF iter  13:  -537.60414928877879    4.54747e-13   3.71051e-10 DIIS
   @DF-RHF iter  14:  -537.60414928877958   -7.95808e-13   1.42407e-10 DIIS
   @DF-RHF iter  15:  -537.60414928877913    4.54747e-13   7.06013e-11 DIIS
  Energy and wave function converged.


  ==> Post-Iterations <==

    Orbital Energies [Eh]
    ---------------------

    Doubly Occupied:                                                      

       1A    -20.585718     2A    -11.295535     3A    -11.234025  
       4A    -11.231630     5A    -11.228381     6A    -11.226744  
       7A    -11.221299     8A    -11.220469     9A    -11.215911  
      10A    -11.214475    11A    -11.214183    12A    -11.213303  
      13A    -11.212215    14A     -1.405918    15A     -1.165707  
      16A     -1.134278    17A     -1.029381    18A     -1.023084  
      19A     -1.009529    20A     -0.944406    21A     -0.902768  
      22A     -0.849360    23A     -0.825191    24A     -0.783504  
      25A     -0.732719    26A     -0.718217    27A     -0.660104  
      28A     -0.648745    29A     -0.644535    30A     -0.620800  
      31A     -0.591405    32A     -0.590774    33A     -0.585423  
      34A     -0.575925    35A     -0.569318    36A     -0.554829  
      37A     -0.544406    38A     -0.509085    39A     -0.495471  
      40A     -0.493593    41A     -0.478986    42A     -0.477887  
      43A     -0.465441    44A     -0.461772    45A     -0.354970  
      46A     -0.341983    47A     -0.280878  

    Virtual:                                                              

      48A      0.123314    49A      0.127211    50A      0.137112  
      51A      0.140590    52A      0.159096    53A      0.164823  
      54A      0.174643    55A      0.186739    56A      0.194471  
      57A      0.199675    58A      0.214714    59A      0.222673  
      60A      0.231527    61A      0.239100    62A      0.242499  
      63A      0.250198    64A      0.271697    65A      0.304275  
      66A      0.311883    67A      0.329870    68A      0.343319  
      69A      0.346481    70A      0.351069    71A      0.356838  
      72A      0.372957    73A      0.385358    74A      0.392132  
      75A      0.422312    76A      0.423551    77A      0.437389  
      78A      0.445651    79A      0.453311    80A      0.462799  
      81A      0.471829    82A      0.475670    83A      0.490475  
      84A      0.492226    85A      0.503717    86A      0.507587  
      87A      0.518319    88A      0.536099    89A      0.544729  
      90A      0.557754    91A      0.566270    92A      0.568269  
      93A      0.570376    94A      0.577360    95A      0.583862  
      96A      0.591475    97A      0.596439    98A      0.600424  
      99A      0.607220   100A      0.614702   101A      0.618190  
     102A      0.623122   103A      0.630045   104A      0.636141  
     105A      0.643156   106A      0.649789   107A      0.661591  
     108A      0.664019   109A      0.665086   110A      0.668556  
     111A      0.677643   112A      0.685620   113A      0.687920  
     114A      0.691908   115A      0.696997   116A      0.705774  
     117A      0.721477   118A      0.726229   119A      0.734699  
     120A      0.739944   121A      0.747643   122A      0.767390  
     123A      0.771149   124A      0.780878   125A      0.786731  
     126A      0.803470   127A      0.832170   128A      0.840663  
     129A      0.843884   130A      0.855020   131A      0.866251  
     132A      0.879185   133A      0.890547   134A      0.899403  
     135A      0.911845   136A      0.929253   137A      0.935216  
     138A      0.943297   139A      0.947279   140A      0.956931  
     141A      0.974585   142A      0.986507   143A      0.991762  
     144A      1.008217   145A      1.018041   146A      1.026358  
     147A      1.035673   148A      1.042708   149A      1.046076  
     150A      1.059360   151A      1.068138   152A      1.081302  
     153A      1.082412   154A      1.097511   155A      1.103396  
     156A      1.109685   157A      1.118393   158A      1.139230  
     159A      1.150993   160A      1.162142   161A      1.176729  
     162A      1.185672   163A      1.198871   164A      1.204742  
     165A      1.215091   166A      1.222773   167A      1.229603  
     168A      1.244634   169A      1.256617   170A      1.261072  
     171A      1.279732   172A      1.287017   173A      1.293255  
     174A      1.301272   175A      1.308231   176A      1.314813  
     177A      1.335728   178A      1.338366   179A      1.358828  
     180A      1.365960   181A      1.366177   182A      1.374119  
     183A      1.384583   184A      1.398754   185A      1.409255  
     186A      1.422634   187A      1.429106   188A      1.437125  
     189A      1.451299   190A      1.460119   191A      1.463127  
     192A      1.473738   193A      1.478752   194A      1.490215  
     195A      1.507019   196A      1.515615   197A      1.523912  
     198A      1.531247   199A      1.541677   200A      1.544527  
     201A      1.553674   202A      1.554526   203A      1.570310  
     204A      1.574198   205A      1.579045   206A      1.590899  
     207A      1.598996   208A      1.610752   209A      1.620458  
     210A      1.628992   211A      1.635944   212A      1.646594  
     213A      1.648465   214A      1.668136   215A      1.679227  
     216A      1.690526   217A      1.696154   218A      1.700951  
[...]
	   62 B(8,7,17)       =    119.087325    -0.000001    -0.003660   119.083664
	   63 B(8,9,10)       =    119.501876    -0.000000    -0.000315   119.501561
	   64 B(8,9,15)       =    117.581254     0.000000    -0.000138   117.581116
	   65 B(9,8,16)       =    118.885058    -0.000000     0.001025   118.886083
	   66 B(9,10,11)      =    120.082177     0.000000     0.000414   120.082591
	   67 B(9,10,14)      =    119.860410    -0.000001    -0.004015   119.856394
	   68 B(9,15,27)      =    108.128108     0.000001     0.003452   108.131560
	   69 B(10,9,15)      =    122.912727     0.000000     0.000366   122.913093
	   70 B(10,11,13)     =    119.032879    -0.000000    -0.000046   119.032833
	   71 B(11,10,14)     =    120.057095     0.000001     0.003582   120.060678
	   72 B(18,1,19)      =    108.152743     0.000000     0.001757   108.154500
	   73 B(20,5,21)      =    106.838565     0.000000     0.002151   106.840716
	   74 B(22,12,23)     =    108.471743    -0.000000    -0.000427   108.471316
	   75 B(22,12,24)     =    108.218673     0.000000     0.000018   108.218691
	   76 B(23,12,24)     =    106.649939    -0.000000     0.000426   106.650365
	   77 B(25,2,26)      =    107.215304     0.000000     0.001779   107.217083
	   78 D(1,2,3,4)      =    -19.577447     0.000000     0.011732   -19.565715
	   79 D(1,2,3,6)      =    163.965544     0.000000     0.009956   163.975500
	   80 D(1,5,4,3)      =     16.309601     0.000000     0.010713    16.320314
	   81 D(1,5,4,12)     =   -168.882537    -0.000000    -0.003504  -168.886041
	   82 D(2,1,5,4)      =    -27.409695     0.000000    -0.003151   -27.412846
	   83 D(2,1,5,20)     =   -149.491530     0.000000    -0.005084  -149.496614
	   84 D(2,1,5,21)     =     90.045710     0.000000    -0.004984    90.040726
	   85 D(2,3,4,5)      =      2.100638    -0.000000    -0.014270     2.086368
	   86 D(2,3,4,12)     =   -172.154048    -0.000000     0.000640  -172.153408
	   87 D(2,3,6,7)      =   -147.285345     0.000000     0.012459  -147.272887
	   88 D(2,3,6,11)     =     31.002010     0.000000     0.007090    31.009100
	   89 D(3,2,1,5)      =     28.456517    -0.000000    -0.004366    28.452151
	   90 D(3,2,1,18)     =    -87.299600    -0.000000    -0.000063   -87.299663
	   91 D(3,2,1,19)     =    152.352508    -0.000000    -0.001735   152.350773
	   92 D(3,4,5,20)     =    138.647650     0.000000     0.010455   138.658105
	   93 D(3,4,5,21)     =   -102.565838     0.000000     0.014559  -102.551279
	   94 D(3,4,12,22)    =     13.184326     0.000000     0.007653    13.191979
	   95 D(3,4,12,23)    =    133.831954    -0.000000     0.006174   133.838128
	   96 D(3,4,12,24)    =   -108.335385    -0.000000     0.007744  -108.327641
	   97 D(3,6,7,8)      =    179.990509    -0.000000    -0.004513   179.985996
	   98 D(3,6,7,17)     =      2.122722     0.000000     0.001734     2.124456
	   99 D(3,6,11,10)    =    179.737809    -0.000000    -0.002875   179.734934
	  100 D(3,6,11,13)    =      0.560628     0.000000     0.003481     0.564109
	  101 D(4,3,2,25)     =   -141.564163     0.000000     0.011320  -141.552843
	  102 D(4,3,2,26)     =     98.683998    -0.000000     0.008544    98.692542
	  103 D(4,3,6,7)      =     36.916270     0.000000     0.010259    36.926529
	  104 D(4,3,6,11)     =   -144.796375     0.000000     0.004890  -144.791485
	  105 D(4,5,1,18)     =     88.253314    -0.000000    -0.007824    88.245490
	  106 D(4,5,1,19)     =   -151.273532    -0.000000    -0.007296  -151.280828
	  107 D(5,1,2,25)     =    150.319519     0.000000    -0.002041   150.317478
	  108 D(5,1,2,26)     =    -89.227329     0.000000    -0.002389   -89.229717
	  109 D(5,4,3,6)      =    178.280461    -0.000000    -0.012263   178.268198
	  110 D(5,4,12,22)    =   -160.597002     0.000000     0.024198  -160.572804
	  111 D(5,4,12,23)    =    -39.949374     0.000000     0.022719   -39.926655
	  112 D(5,4,12,24)    =     77.883287     0.000000     0.024289    77.907576
	  113 D(6,3,2,25)     =     41.978829     0.000000     0.009543    41.988372
	  114 D(6,3,2,26)     =    -77.773011    -0.000000     0.006767   -77.766244
	  115 D(6,3,4,12)     =      4.025775     0.000000     0.002647     4.028422
	  116 D(6,7,8,9)      =     -0.332432     0.000000     0.006930    -0.325502
	  117 D(6,7,8,16)     =   -179.421973     0.000000     0.001331  -179.420642
	  118 D(6,11,10,9)    =      0.815027     0.000000     0.007598     0.822625
	  119 D(6,11,10,14)   =   -179.390449     0.000000     0.001444  -179.389004
	  120 D(7,6,11,10)    =     -1.894385    -0.000000    -0.007972    -1.902357
	  121 D(7,6,11,13)    =    178.928434    -0.000000    -0.001616   178.926818
	  122 D(7,8,9,10)     =     -0.809059    -0.000000    -0.007379    -0.816438
	  123 D(7,8,9,15)     =    179.909657    -0.000000     0.000127   179.909784
	  124 D(8,7,6,11)     =      1.655863     0.000000     0.000702     1.656565
	  125 D(8,9,10,11)    =      0.572674    -0.000000     0.000255     0.572929
	  126 D(8,9,10,14)    =   -179.222256     0.000000     0.006380  -179.215876
	  127 D(8,9,15,27)    =    179.389851    -0.000000    -0.008082   179.381769
	  128 D(9,8,7,17)     =    177.539199    -0.000000     0.000823   177.540022
	  129 D(9,10,11,13)   =    179.996373     0.000000     0.001272   179.997645
	  130 D(10,9,8,16)    =    178.301155    -0.000000    -0.001916   178.299239
	  131 D(10,9,15,27)   =      0.134973     0.000000    -0.000296     0.134677
	  132 D(11,6,7,17)    =   -176.211924     0.000000     0.006949  -176.204975
	  133 D(11,10,9,15)   =    179.813841    -0.000000    -0.007674   179.806167
	  134 D(12,4,5,20)    =    -46.544488    -0.000000    -0.003762   -46.548250
	  135 D(12,4,5,21)    =     72.242024     0.000000     0.000342    72.242366
	  136 D(13,11,10,14)  =     -0.209103    -0.000000    -0.004882    -0.213984
	  137 D(14,10,9,15)   =      0.018911    -0.000000    -0.001549     0.017362
	  138 D(15,9,8,16)    =     -0.980129     0.000000     0.005590    -0.974539
	  139 D(16,8,7,17)    =     -1.550342    -0.000000    -0.004775    -1.555117
	  140 D(18,1,2,25)    =     34.563403     0.000000     0.002262    34.565665
	  141 D(18,1,2,26)    =    155.016555     0.000000     0.001915   155.018469
	  142 D(18,1,5,20)    =    -33.828521    -0.000000    -0.009757   -33.838278
	  143 D(18,1,5,21)    =   -154.291281    -0.000000    -0.009656  -154.300937
	  144 D(19,1,2,25)    =    -85.784490     0.000000     0.000590   -85.783899
	  145 D(19,1,2,26)    =     34.668662    -0.000000     0.000243    34.668905
	  146 D(19,1,5,20)    =     86.644633    -0.000000    -0.009229    86.635404
	  147 D(19,1,5,21)    =    -33.818127    -0.000000    -0.009129   -33.827256
	  148 R(7,12)         =      3.198228    -0.000031    -0.000067     3.198161
	 ---------------------------------------------------------------------------
	Successfully symmetrized geometry.

  ==> Convergence Check <==

  Measures of convergence in internal coordinates in au.
  Criteria marked as inactive (o), active & met (*), and active & unmet ( ).
  ---------------------------------------------------------------------------------------------
   Step     Total Energy     Delta E     MAX Force     RMS Force      MAX Disp      RMS Disp   
  ---------------------------------------------------------------------------------------------
    Convergence Criteria    1.00e-06 *    3.00e-04 *             o    1.20e-03 *             o
  ---------------------------------------------------------------------------------------------
      8    -539.99432287   -1.47e-07 *    1.70e-05 *    4.76e-06 o    4.24e-04 *    1.02e-04 o  ~
  ---------------------------------------------------------------------------------------------


  **** Optimization is complete! (in 8 steps) ****

  ==> Optimization Summary <==

  Measures of convergence in internal coordinates in au.
  --------------------------------------------------------------------------------------------------------------- ~
   Step         Total Energy             Delta E       MAX Force       RMS Force        MAX Disp        RMS Disp  ~
  --------------------------------------------------------------------------------------------------------------- ~
      1    -539.987828798204   -539.987828798204      0.02000977      0.00577231      0.04616528      0.01603190  ~
      2    -539.994102291826     -0.006273493622      0.00456677      0.00064725      0.05131384      0.00974286  ~
      3    -539.994265208122     -0.000162916296      0.00085562      0.00018476      0.02886159      0.00775808  ~
      4    -539.994303500785     -0.000038292663      0.00061123      0.00011909      0.02040963      0.00514253  ~
      5    -539.994316738787     -0.000013238002      0.00035635      0.00007352      0.01742826      0.00335900  ~
      6    -539.994321560843     -0.000004822056      0.00015331      0.00003793      0.01100759      0.00215375  ~
      7    -539.994322726538     -0.000001165695      0.00006123      0.00001679      0.00172172      0.00037576  ~
      8    -539.994322873138     -0.000000146600      0.00001705      0.00000476      0.00042392      0.00010168  ~
  --------------------------------------------------------------------------------------------------------------- ~

	Writing optimization data to binary file.
	Final energy is   -539.9943228731378
	Final (previous) structure:
	Cartesian Geometry (in Angstrom)
	    C     3.3158069377   1.3556806915   0.5144395637
	    C     1.8157931854   1.6285496255   0.6120393232
	    C     1.2136753190   0.4163092858  -0.0496383181
	    C     2.1257624520  -0.1989087273  -0.8257298276
	    C     3.4545400059   0.4928313788  -0.7382096219
	    C    -0.1886736724   0.0784127247   0.1139381548
	    C    -0.6395411765  -1.2438802428   0.1293639793
	    C    -1.9787537634  -1.5512169556   0.2862425880
	    C    -2.9094472539  -0.5338118898   0.4400613754
	    C    -2.4827037711   0.7869120357   0.4517711069
	    C    -1.1386985642   1.0834870313   0.2988277778
	    C     1.9289026630  -1.3242336964  -1.7746581150
	    H    -0.8261563553   2.1143956536   0.3104701692
	    H    -3.1998429636   1.5819197950   0.5835994848
	    O    -4.2159782771  -0.8911246116   0.5890994051
	    H    -2.3170515486  -2.5726142162   0.3062855507
	    H     0.0754161327  -2.0446474772   0.0512302422
	    H     3.6193005299   0.7700778836   1.3779323983
	    H     3.9185752945   2.2570908122   0.4886596385
	    H     4.2882452545  -0.2037758214  -0.6864660337
	    H     3.6074204635   1.1036481871  -1.6311321472
	    H     0.8802524975  -1.5064479711  -1.9833008793
	    H     2.4342261576  -1.1049066096  -2.7133443220
	    H     2.3655793462  -2.2466096095  -1.3931451500
	    H     1.4745656792   1.7634540481   1.6346079039
	    H     1.5463507766   2.5309123450   0.0598052783
	    H    -4.7353715099  -0.0890260658   0.6935298571
	Saving final (previous) structure.
	Cleaning optimization helper files.
			--------------------------
			 OPTKING Finished Execution 
			--------------------------

    Final optimized geometry and variables:
    Molecular point group: c1
    Full point group: C1

    Geometry (in Angstrom), charge = 0, multiplicity = 1:

    C            3.315806950738     1.355680696819     0.514439565766
    C            1.815793192556     1.628549631949     0.612039325569
    C            1.213675323814     0.416309287433    -0.049638318270
    C            2.125762460341    -0.198908728061    -0.825729830887
    C            3.454540019442     0.492831380743    -0.738209624844
    C           -0.188673673175     0.078412724994     0.113938155230
    C           -0.639541179054    -1.243880247645     0.129363979792
    C           -1.978753771159    -1.551216961688     0.286242589175
    C           -2.909447265300    -0.533811891912     0.440061377082
    C           -2.482703780859     0.786912038807     0.451771108714
    C           -1.138698568651     1.083487035567     0.298827778964
    C            1.928902670552    -1.324233701633    -1.774658121956
    H           -0.826156358522     2.114395661919     0.310470170422
    H           -3.199842976208     1.581919801176     0.583599487125
    O           -4.215978293652    -0.891124615077     0.589099407429
    H           -2.317051557708    -2.572614226297     0.306285551907
    H            0.075416132955    -2.044647485221     0.051230242407
    H            3.619300544166     0.770077886592     1.377932403689
    H            3.918575309886     2.257090821054     0.488659640459
    H            4.288245271394    -0.203775822182    -0.686466036385
    H            3.607420477729     1.103648191457    -1.631132153586
    H            0.880252501005    -1.506447976998    -1.983300887090
    H            2.434226167209    -1.104906613973    -2.713344332712
    H            2.365579355467    -2.246609618355    -1.393145155437
    H            1.474565684980     1.763454054997     1.634607910331
    H            1.546350782640     2.530912354955     0.059805278551
    H           -4.735371528476    -0.089026066161     0.693529859792

	Removing binary optimization data file.
	Cleaning optimization helper files.


Properties will be evaluated at   0.000000,   0.000000,   0.000000 [a0]
OEProp: No title given, name of density matrix used for the following properties is 'DF-MP2 relaxed density'
  Mulliken Charges: (a.u.)
   Center  Symbol    Alpha    Beta     Spin     Total
       1     C     3.12670  3.12670  0.00000 -0.25340
       2     C     3.13611  3.13611  0.00000 -0.27222
       3     C     3.05162  3.05162  0.00000 -0.10324
       4     C     2.99082  2.99082  0.00000  0.01837
       5     C     3.12890  3.12890  0.00000 -0.25779
       6     C     2.90623  2.90623  0.00000  0.18754
       7     C     3.08348  3.08348  0.00000 -0.16695
       8     C     3.09795  3.09795  0.00000 -0.19590
       9     C     2.89487  2.89487  0.00000  0.21026
      10     C     3.11569  3.11569  0.00000 -0.23138
      11     C     3.10144  3.10144  0.00000 -0.20289
      12     C     3.20515  3.20515  0.00000 -0.41029
      13     H     0.42549  0.42549  0.00000  0.14903
      14     H     0.43606  0.43606  0.00000  0.12789
      15     O     4.14793  4.14793  0.00000 -0.29586
      16     H     0.42176  0.42176  0.00000  0.15648
      17     H     0.41875  0.41875  0.00000  0.16250
      18     H     0.44012  0.44012  0.00000  0.11975
      19     H     0.43555  0.43555  0.00000  0.12890
      20     H     0.43694  0.43694  0.00000  0.12613
      21     H     0.44013  0.44013  0.00000  0.11974
      22     H     0.43100  0.43100  0.00000  0.13799
      23     H     0.43552  0.43552  0.00000  0.12896
      24     H     0.43283  0.43283  0.00000  0.13434
      25     H     0.43330  0.43330  0.00000  0.13341
      26     H     0.43896  0.43896  0.00000  0.12208
      27     H     0.38672  0.38672  0.00000  0.22657

   Total alpha = 47.00000, Total beta = 47.00000, Total charge =  0.00000

    Molecular point group: c1
    Full point group: C1

    Geometry (in Angstrom), charge = 0, multiplicity = 1:

       Center              X                  Y                   Z               Mass       
    ------------   -----------------  -----------------  -----------------  -----------------
         C            3.315806950738     1.355680696819     0.514439565766    12.000000000000
         C            1.815793192556     1.628549631949     0.612039325569    12.000000000000
         C            1.213675323814     0.416309287433    -0.049638318270    12.000000000000
         C            2.125762460341    -0.198908728061    -0.825729830887    12.000000000000
         C            3.454540019442     0.492831380743    -0.738209624844    12.000000000000
         C           -0.188673673175     0.078412724994     0.113938155230    12.000000000000
         C           -0.639541179054    -1.243880247645     0.129363979792    12.000000000000
         C           -1.978753771159    -1.551216961688     0.286242589175    12.000000000000
         C           -2.909447265300    -0.533811891912     0.440061377082    12.000000000000
         C           -2.482703780859     0.786912038807     0.451771108714    12.000000000000
         C           -1.138698568651     1.083487035567     0.298827778964    12.000000000000
         C            1.928902670552    -1.324233701633    -1.774658121956    12.000000000000
         H           -0.826156358522     2.114395661919     0.310470170422     1.007825032230
         H           -3.199842976208     1.581919801176     0.583599487125     1.007825032230
         O           -4.215978293652    -0.891124615077     0.589099407429    15.994914619570
         H           -2.317051557708    -2.572614226297     0.306285551907     1.007825032230
         H            0.075416132955    -2.044647485221     0.051230242407     1.007825032230
         H            3.619300544166     0.770077886592     1.377932403689     1.007825032230
         H            3.918575309886     2.257090821054     0.488659640459     1.007825032230
         H            4.288245271394    -0.203775822182    -0.686466036385     1.007825032230
         H            3.607420477729     1.103648191457    -1.631132153586     1.007825032230
         H            0.880252501005    -1.506447976998    -1.983300887090     1.007825032230
         H            2.434226167209    -1.104906613973    -2.713344332712     1.007825032230
         H            2.365579355467    -2.246609618355    -1.393145155437     1.007825032230
         H            1.474565684980     1.763454054997     1.634607910331     1.007825032230
         H            1.546350782640     2.530912354955     0.059805278551     1.007825032230
         H           -4.735371528476    -0.089026066161     0.693529859792     1.007825032230



  Variable Map:
  ----------------------------------------------------------------------------
  "CURRENT CORRELATION ENERGY"           =>      -2.390330010267
  "CURRENT DIPOLE X"                     =>       0.140941612621
  "CURRENT DIPOLE Y"                     =>       1.306713380243
  "CURRENT DIPOLE Z"                     =>      -0.120292602187
  "CURRENT ENERGY"                       =>    -539.994322873138
  "CURRENT REFERENCE ENERGY"             =>    -537.603992862871
  "CUSTOM SCS-MP2 CORRELATION ENERGY"    =>      -2.366006893917
  "CUSTOM SCS-MP2 TOTAL ENERGY"          =>    -539.969999756788
  "HF TOTAL ENERGY"                      =>    -537.603992862871
  "MP2 CORRELATION ENERGY"               =>      -2.390330010267
  "MP2 DOUBLES ENERGY"                   =>      -2.390330010267
  "MP2 OPPOSITE-SPIN CORRELATION ENERGY" =>      -1.810650258263
  "MP2 SAME-SPIN CORRELATION ENERGY"     =>      -0.579679752003
  "MP2 SINGLES ENERGY"                   =>      -0.000000000000
  "MP2 TOTAL ENERGY"                     =>    -539.994322873138
  "NUCLEAR REPULSION ENERGY"             =>     753.479288924524
  "ONE-ELECTRON ENERGY"                  =>   -2224.607233193175
  "OPTIMIZATION ITERATIONS"              =>       8.000000000000
  "PCM POLARIZATION ENERGY"              =>       0.000000000000
  "PE ENERGY"                            =>       0.000000000000
  "SCF DIPOLE X"                         =>       0.140941612621
  "SCF DIPOLE Y"                         =>       1.306713380243
  "SCF DIPOLE Z"                         =>      -0.120292602187
  "SCF ITERATION ENERGY"                 =>    -537.603992862871
  "SCF ITERATIONS"                       =>      11.000000000000
  "SCF TOTAL ENERGY"                     =>    -537.603992862871
  "SCS-MP2 CORRELATION ENERGY"           =>      -2.366006893917
  "SCS-MP2 TOTAL ENERGY"                 =>    -539.969999756788
  "TWO-ELECTRON ENERGY"                  =>     933.523951405780



    Psi4 stopped on: Saturday, 11 December 2021 07:00PM
    Psi4 wall time for execution: 1:12:15.14

*** Psi4 exiting successfully. Buy a developer a beer!
