
    -----------------------------------------------------------------------
          Psi4: An Open-Source Ab Initio Electronic Structure Package
                               Psi4 1.4 release

                         Git: Rev {HEAD} 9485035 


    D. G. A. Smith, L. A. Burns, A. C. Simmonett, R. M. Parrish,
    M. C. Schieber, R. Galvelis, P. Kraus, H. Kruse, R. Di Remigio,
    A. Alenaizan, A. M. James, S. Lehtola, J. P. Misiewicz, M. Scheurer,
    R. A. Shaw, J. B. Schriber, Y. Xie, Z. L. Glick, D. A. Sirianni,
    J. S. O'Brien, J. M. Waldrop, A. Kumar, E. G. Hohenstein,
    B. P. Pritchard, B. R. Brooks, H. F. Schaefer III, A. Yu. Sokolov,
    K. Patkowski, A. E. DePrince III, U. Bozkaya, R. A. King,
    F. A. Evangelista, J. M. Turney, T. D. Crawford, C. D. Sherrill,
    J. Chem. Phys. 152(18) 184108 (2020). https://doi.org/10.1063/5.0006002

                            Additional Code Authors
    E. T. Seidl, C. L. Janssen, E. F. Valeev, M. L. Leininger,
    J. F. Gonthier, R. M. Richard, H. R. McAlexander, M. Saitow, X. Wang,
    P. Verma, and M. H. Lechner

             Previous Authors, Complete List of Code Contributors,
                       and Citations for Specific Modules
    https://github.com/psi4/psi4/blob/master/codemeta.json
    https://github.com/psi4/psi4/graphs/contributors
    http://psicode.org/psi4manual/master/introduction.html#citing-psifour

    -----------------------------------------------------------------------


    Psi4 started on: Thursday, 10 February 2022 06:36AM

    Process ID: 1621355
    Host:       skylm008.palmetto.clemson.edu
    PSIDATADIR: /home/maxbuskirk/.conda/envs/psifour/share/psi4
    Memory:     500.0 MiB
    Threads:    1
    
  ==> Input File <==

--------------------------------------------------------------------------
memory 62 GB

molecule mol {
0 1
 C     1.511290    -0.280966    -0.092593
 C    -0.000000     0.000000     0.000000
 C    -0.605968    -1.226439    -0.664954
 C     0.319060    -1.848819    -1.451355
 C     1.653820    -1.134973    -1.365322
 C    -2.027094    -1.583009    -0.507457
 C    -2.438238    -2.928025    -0.366876
 C    -3.794208    -3.253627    -0.211477
 C    -4.766046    -2.240264    -0.182231
 C    -4.369571    -0.897483    -0.299270
 C    -3.014139    -0.572542    -0.452922
 C     0.120138    -2.993149    -2.399423
 H    -2.715369     0.476287    -0.545440
 H    -5.118805    -0.100426    -0.268581
 O    -6.099328    -2.559996    -0.025611
 H    -4.091097    -4.301038    -0.099616
 H    -1.681648    -3.717845    -0.347819
 H     1.812305    -0.886836     0.778541
 H     2.127353     0.631886    -0.103726
 H     2.509857    -1.831293    -1.328975
 H     1.794964    -0.502471    -2.264944
 H    -0.944311    -3.224044    -2.552012
 H     0.568816    -2.749556    -3.378502
 H     0.625600    -3.906462    -2.037287
 H    -0.354002     0.144380     1.034324
 H    -0.267853     0.913064    -0.567140
 H    -6.616502    -1.766689    -0.027354
}

set scf_type df
set basis cc-pVTZ
set reference rhf

mol.update_geometry()
mol.symmetrize(1e-3)

e, wfn = optimize('CCSD', return_wfn=True)
oeprop(wfn, "MULLIKEN_CHARGES")
mol.print_out()
print_variables()
--------------------------------------------------------------------------

  Memory set to  57.742 GiB by Python driver.

Scratch directory: /scratch1/maxbuskirk/
gradient() will perform analytic gradient computation.

*** tstart() called on skylm008.palmetto.clemson.edu
*** at Thu Feb 10 06:36:39 2022

   => Loading Basis Set <=

    Name: CC-PVTZ
    Role: ORBITAL
    Keyword: BASIS
    atoms 1-12         entry C          line   186 file /home/maxbuskirk/.conda/envs/psifour/share/psi4/basis/cc-pvtz.gbs 
    atoms 13-14, 16-27 entry H          line    23 file /home/maxbuskirk/.conda/envs/psifour/share/psi4/basis/cc-pvtz.gbs 
    atoms 15           entry O          line   262 file /home/maxbuskirk/.conda/envs/psifour/share/psi4/basis/cc-pvtz.gbs 


         ---------------------------------------------------------
                                   SCF
               by Justin Turney, Rob Parrish, Andy Simmonett
                          and Daniel G. A. Smith
                              RHF Reference
                        1 Threads,  59127 MiB Core
         ---------------------------------------------------------

  ==> Geometry <==

    Molecular point group: c1
    Full point group: C1

    Geometry (in Angstrom), charge = 0, multiplicity = 1:

       Center              X                  Y                   Z               Mass       
    ------------   -----------------  -----------------  -----------------  -----------------
         C            3.343161681350     1.381498185863     0.528507420066    12.000000000000
         C            1.831871681350     1.662464185863     0.621100420066    12.000000000000
         C            1.225903681350     0.436025185863    -0.043853579934    12.000000000000
         C            2.150931681350    -0.186354814137    -0.830254579934    12.000000000000
         C            3.485691681350     0.527491185863    -0.744221579934    12.000000000000
         C           -0.195222318650     0.079455185863     0.113643420066    12.000000000000
         C           -0.606366318650    -1.265560814137     0.254224420066    12.000000000000
         C           -1.962336318650    -1.591162814137     0.409623420066    12.000000000000
         C           -2.934174318650    -0.577799814137     0.438869420066    12.000000000000
         C           -2.537699318650     0.764981185863     0.321830420066    12.000000000000
         C           -1.182267318650     1.089922185863     0.168178420066    12.000000000000
         C            1.952009681350    -1.330684814137    -1.778322579934    12.000000000000
         H           -0.883497318650     2.138751185863     0.075660420066     1.007825032230
         H           -3.286933318650     1.562038185863     0.352519420066     1.007825032230
         O           -4.267456318650    -0.897531814137     0.595489420066    15.994914619570
         H           -2.259225318650    -2.638573814137     0.521484420066     1.007825032230
         H            0.150223681350    -2.055380814137     0.273281420066     1.007825032230
         H            3.644176681350     0.775628185863     1.399641420066     1.007825032230
         H            3.959224681350     2.294350185863     0.517374420066     1.007825032230
         H            4.341728681350    -0.168828814137    -0.707874579934     1.007825032230
         H            3.626835681350     1.159993185863    -1.643843579934     1.007825032230
         H            0.887560681350    -1.561579814137    -1.930911579934     1.007825032230
         H            2.400687681350    -1.087091814137    -2.757401579934     1.007825032230
         H            2.457471681350    -2.243997814137    -1.416186579934     1.007825032230
         H            1.477869681350     1.806844185863     1.655424420066     1.007825032230
         H            1.564018681350     2.575528185863     0.053960420066     1.007825032230
         H           -4.784630318650    -0.104224814137     0.593746420066     1.007825032230

  Running in c1 symmetry.

  Rotational constants: A =      0.06639  B =      0.01409  C =      0.01232 [cm^-1]
  Rotational constants: A =   1990.39664  B =    422.52470  C =    369.24234 [MHz]
  Nuclear repulsion =  744.703870898503169

  Charge       = 0
  Multiplicity = 1
  Electrons    = 94
  Nalpha       = 47
  Nbeta        = 47

  ==> Algorithm <==

  SCF Algorithm Type is DF.
  DIIS enabled.
  MOM disabled.
  Fractional occupation disabled.
  Guess Type is SAD.
  Energy threshold   = 1.00e-10
  Density threshold  = 1.00e-10
  Integral threshold = 1.00e-12

  ==> Primary Basis <==

  Basis Set: CC-PVTZ
    Blend: CC-PVTZ
    Number of shells: 214
    Number of basis functions: 586
    Number of Cartesian functions: 665
    Spherical Harmonics?: true
    Max angular momentum: 3

   => Loading Basis Set <=

    Name: (CC-PVTZ AUX)
    Role: JKFIT
    Keyword: DF_BASIS_SCF
    atoms 1-12         entry C          line   125 file /home/maxbuskirk/.conda/envs/psifour/share/psi4/basis/cc-pvtz-jkfit.gbs 
    atoms 13-14, 16-27 entry H          line    51 file /home/maxbuskirk/.conda/envs/psifour/share/psi4/basis/cc-pvtz-jkfit.gbs 
    atoms 15           entry O          line   229 file /home/maxbuskirk/.conda/envs/psifour/share/psi4/basis/cc-pvtz-jkfit.gbs 

  ==> Integral Setup <==

  DFHelper Memory: AOs need 2.996 GiB; user supplied 43.306 GiB. Using in-core AOs.

  ==> MemDFJK: Density-Fitted J/K Matrices <==

    J tasked:                   Yes
    K tasked:                   Yes
    wK tasked:                   No
    OpenMP threads:               1
    Memory [MiB]:             44345
    Algorithm:                 Core
    Schwarz Cutoff:           1E-12
    Mask sparsity (%):      21.4254
    Fitting Condition:        1E-10

   => Auxiliary Basis Set <=

  Basis Set: (CC-PVTZ AUX)
    Blend: CC-PVTZ-JKFIT
    Number of shells: 465
    Number of basis functions: 1447
    Number of Cartesian functions: 1738
    Spherical Harmonics?: true
    Max angular momentum: 4

  Minimum eigenvalue in the overlap matrix is 3.4636695532E-05.
  Reciprocal condition number of the overlap matrix is 3.8851707514E-06.
    Using symmetric orthogonalization.

  ==> Pre-Iterations <==

  SCF Guess: Superposition of Atomic Densities via on-the-fly atomic UHF (no occupation information).

   -------------------------
    Irrep   Nso     Nmo    
   -------------------------
     A        586     586 
   -------------------------
    Total     586     586
   -------------------------

  ==> Iterations <==

                           Total Energy        Delta E     RMS |[F,P]|

   @DF-RHF iter SAD:  -537.10764152733896   -5.37108e+02   0.00000e+00 
   @DF-RHF iter   1:  -537.24408478739497   -1.36443e-01   1.27688e-03 DIIS
   @DF-RHF iter   2:  -537.53262093154251   -2.88536e-01   5.91189e-04 DIIS
   @DF-RHF iter   3:  -537.59116515193580   -5.85442e-02   1.36229e-04 DIIS
   @DF-RHF iter   4:  -537.59603745479365   -4.87230e-03   5.95162e-05 DIIS
   @DF-RHF iter   5:  -537.59675934328789   -7.21888e-04   1.20881e-05 DIIS
   @DF-RHF iter   6:  -537.59680141784008   -4.20746e-05   4.75379e-06 DIIS
   @DF-RHF iter   7:  -537.59680702839103   -5.61055e-06   1.28019e-06 DIIS
   @DF-RHF iter   8:  -537.59680771823480   -6.89844e-07   5.10413e-07 DIIS
   @DF-RHF iter   9:  -537.59680782770022   -1.09465e-07   1.97779e-07 DIIS
   @DF-RHF iter  10:  -537.59680785123737   -2.35372e-08   8.97189e-08 DIIS
   @DF-RHF iter  11:  -537.59680785790420   -6.66682e-09   4.20723e-08 DIIS
   @DF-RHF iter  12:  -537.59680785951821   -1.61401e-09   1.88342e-08 DIIS
   @DF-RHF iter  13:  -537.59680785987007   -3.51861e-10   7.03003e-09 DIIS
   @DF-RHF iter  14:  -537.59680785991020   -4.01315e-11   2.75500e-09 DIIS
   @DF-RHF iter  15:  -537.59680785991281   -2.61480e-12   1.01605e-09 DIIS
   @DF-RHF iter  16:  -537.59680785991031    2.50111e-12   4.94565e-10 DIIS
   @DF-RHF iter  17:  -537.59680785991168   -1.36424e-12   2.21720e-10 DIIS
   @DF-RHF iter  18:  -537.59680785990804    3.63798e-12   9.33875e-11 DIIS
  Energy and wave function converged.


  ==> Post-Iterations <==

    Orbital Energies [Eh]
    ---------------------

    Doubly Occupied:                                                      

       1A    -20.584182     2A    -11.305015     3A    -11.243144  
       4A    -11.241598     5A    -11.237074     6A    -11.236748  
       7A    -11.233165     8A    -11.228925     9A    -11.224879  
      10A    -11.223053    11A    -11.222709    12A    -11.221694  
      13A    -11.220520    14A     -1.400012    15A     -1.155075  
      16A     -1.124656    17A     -1.022682    18A     -1.015782  
      19A     -1.003094    20A     -0.939493    21A     -0.897961  
      22A     -0.842038    23A     -0.822101    24A     -0.778632  
      25A     -0.729758    26A     -0.713252    27A     -0.654388  
      28A     -0.644191    29A     -0.637481    30A     -0.617445  
      31A     -0.587991    32A     -0.584919    33A     -0.582201  
      34A     -0.571583    35A     -0.564560    36A     -0.549863  
      37A     -0.540362    38A     -0.505571    39A     -0.494407  
      40A     -0.489395    41A     -0.477675    42A     -0.475617  
      43A     -0.463179    44A     -0.460120    45A     -0.352672  
      46A     -0.339492    47A     -0.280960  

    Virtual:                                                              

      48A      0.118417    49A      0.121341    50A      0.136040  
      51A      0.140896    52A      0.157679    53A      0.163293  
      54A      0.173438    55A      0.185608    56A      0.190291  
      57A      0.197992    58A      0.212589    59A      0.219995  
      60A      0.227699    61A      0.237345    62A      0.240975  
      63A      0.247906    64A      0.268597    65A      0.301247  
      66A      0.309022    67A      0.328310    68A      0.336464  
      69A      0.341710    70A      0.347210    71A      0.354278  
      72A      0.368702    73A      0.382962    74A      0.390832  
      75A      0.418927    76A      0.420942    77A      0.435095  
      78A      0.442206    79A      0.451908    80A      0.460557  
      81A      0.467170    82A      0.472109    83A      0.486502  
      84A      0.488510    85A      0.498929    86A      0.502105  
      87A      0.510888    88A      0.529810    89A      0.543153  
      90A      0.549335    91A      0.560124    92A      0.561044  
      93A      0.564659    94A      0.570003    95A      0.579484  
      96A      0.587318    97A      0.594892    98A      0.597339  
      99A      0.601533   100A      0.605671   101A      0.613299  
     102A      0.617536   103A      0.624504   104A      0.629851  
     105A      0.637075   106A      0.645228   107A      0.653864  
     108A      0.655891   109A      0.661210   110A      0.662159  
     111A      0.670073   112A      0.678677   113A      0.681020  
     114A      0.685637   115A      0.689523   116A      0.700210  
     117A      0.713188   118A      0.720616   119A      0.727894  
     120A      0.735512   121A      0.739475   122A      0.759788  
     123A      0.760635   124A      0.771193   125A      0.778476  
     126A      0.798485   127A      0.830261   128A      0.834750  
     129A      0.836875   130A      0.848573   131A      0.858570  
     132A      0.874750   133A      0.884397   134A      0.894114  
     135A      0.901545   136A      0.914711   137A      0.923899  
     138A      0.935260   139A      0.940088   140A      0.949813  
     141A      0.962115   142A      0.979100   143A      0.982434  
     144A      0.998720   145A      1.011036   146A      1.016122  
     147A      1.023652   148A      1.027584   149A      1.037895  
     150A      1.043184   151A      1.061184   152A      1.070602  
     153A      1.073225   154A      1.087935   155A      1.095164  
     156A      1.100324   157A      1.112781   158A      1.134846  
     159A      1.144480   160A      1.154760   161A      1.171441  
     162A      1.177588   163A      1.187596   164A      1.193707  
     165A      1.206408   166A      1.212899   167A      1.221452  
     168A      1.237113   169A      1.248128   170A      1.249563  
     171A      1.268104   172A      1.277835   173A      1.286226  
     174A      1.290532   175A      1.299292   176A      1.301193  
     177A      1.326584   178A      1.330844   179A      1.349471  
     180A      1.357024   181A      1.360981   182A      1.363362  
     183A      1.378574   184A      1.385083   185A      1.401447  
     186A      1.412902   187A      1.420376   188A      1.427578  
     189A      1.439850   190A      1.447133   191A      1.451133  
     192A      1.459907   193A      1.464882   194A      1.482070  
     195A      1.493760   196A      1.507059   197A      1.508658  
     198A      1.516515   199A      1.527693   200A      1.534074  
     201A      1.541107   202A      1.542640   203A      1.556719  
     204A      1.560543   205A      1.562721   206A      1.574678  
     207A      1.582423   208A      1.600634   209A      1.607830  
     210A      1.612821   211A      1.620850   212A      1.634027  
     213A      1.638066   214A      1.660085   215A      1.666991  
     216A      1.684368   217A      1.689761   218A      1.693547  
     219A      1.697645   220A      1.721833   221A      1.733573  
     222A      1.745271   223A      1.747531   224A      1.763034  
     225A      1.774700   226A      1.783836   227A      1.802738  
     228A      1.814752   229A      1.820082   230A      1.838228  
     231A      1.854661   232A      1.894818   233A      1.922681  
     234A      1.935567   235A      1.955185   236A      1.972677  
     237A      1.980669   238A      1.993643   239A      2.015495  
     240A      2.082531   241A      2.149026   242A      2.165271  
     243A      2.185619   244A      2.197945   245A      2.208080  
     246A      2.245669   247A      2.328199   248A      2.355077  
     249A      2.367188   250A      2.408231   251A      2.412745  
     252A      2.440521   253A      2.456128   254A      2.472648  
     255A      2.509415   256A      2.516238   257A      2.538169  
     258A      2.580993   259A      2.598783   260A      2.602146  
     261A      2.624103   262A      2.629937   263A      2.649008  
     264A      2.662471   265A      2.668857   266A      2.680817  
     267A      2.709927   268A      2.731425   269A      2.745483  
     270A      2.752874   271A      2.762839   272A      2.774564  
     273A      2.788671   274A      2.797431   275A      2.809429  
     276A      2.812061   277A      2.824120   278A      2.832243  
     279A      2.843426   280A      2.846843   281A      2.866866  
     282A      2.873122   283A      2.883349   284A      2.893457  
     285A      2.896651   286A      2.915891   287A      2.928630  
     288A      2.944769   289A      2.949887   290A      2.956905  
     291A      2.962007   292A      2.972452   293A      2.976080  
     294A      2.986898   295A      3.003079   296A      3.005502  
     297A      3.019891   298A      3.033548   299A      3.048357  
     300A      3.050269   301A      3.063199   302A      3.067308  
     303A      3.077766   304A      3.086185   305A      3.101229  
     306A      3.104343   307A      3.122083   308A      3.123146  
     309A      3.139972   310A      3.145283   311A      3.170584  
     312A      3.172875   313A      3.181241   314A      3.187725  
     315A      3.213038   316A      3.234508   317A      3.239128  
     318A      3.250818   319A      3.258527   320A      3.261669  
     321A      3.271776   322A      3.278060   323A      3.290663  
     324A      3.302901   325A      3.313408   326A      3.319386  
     327A      3.323067   328A      3.341858   329A      3.352153  
     330A      3.352907   331A      3.357240   332A      3.369810  
     333A      3.376845   334A      3.381144   335A      3.385690  
     336A      3.392296   337A      3.398007   338A      3.405480  
     339A      3.408828   340A      3.410502   341A      3.425431  
     342A      3.425468   343A      3.434606   344A      3.437407  
     345A      3.451216   346A      3.453644   347A      3.463934  
     348A      3.469759   349A      3.480418   350A      3.490088  
     351A      3.496536   352A      3.503300   353A      3.523220  
     354A      3.528612   355A      3.536558   356A      3.542553  
     357A      3.553317   358A      3.557366   359A      3.562385  
     360A      3.583250   361A      3.588720   362A      3.594858  
     363A      3.607574   364A      3.622057   365A      3.631237  
     366A      3.636359   367A      3.650885   368A      3.663281  
     369A      3.664805   370A      3.671514   371A      3.676876  
     372A      3.683444   373A      3.700882   374A      3.714571  
     375A      3.720265   376A      3.733104   377A      3.740255  
     378A      3.745796   379A      3.746835   380A      3.762157  
     381A      3.777476   382A      3.783151   383A      3.785858  
     384A      3.789128   385A      3.815978   386A      3.822958  
     387A      3.827771   388A      3.843675   389A      3.853921  
     390A      3.855652   391A      3.861967   392A      3.883900  
     393A      3.897965   394A      3.912659   395A      3.920742  
     396A      3.939079   397A      3.945639   398A      3.957023  
     399A      3.974542   400A      3.978653   401A      3.995506  
     402A      4.005804   403A      4.011434   404A      4.020032  
     405A      4.022545   406A      4.030936   407A      4.038748  
     408A      4.043687   409A      4.068226   410A      4.077277  
     411A      4.094571   412A      4.099069   413A      4.103588  
     414A      4.109468   415A      4.117803   416A      4.125608  
     417A      4.138295   418A      4.143898   419A      4.151727  
     420A      4.163669   421A      4.173972   422A      4.183569  
     423A      4.188696   424A      4.193566   425A      4.197887  
     426A      4.211727   427A      4.219613   428A      4.232076  
     429A      4.240712   430A      4.247399   431A      4.265476  
     432A      4.271198   433A      4.275575   434A      4.296840  
     435A      4.306681   436A      4.315166   437A      4.321924  
     438A      4.335087   439A      4.345114   440A      4.350772  
     441A      4.354875   442A      4.371484   443A      4.381969  
     444A      4.393731   445A      4.405822   446A      4.419403  
     447A      4.423286   448A      4.431463   449A      4.438388  
     450A      4.445263   451A      4.460106   452A      4.481424  
     453A      4.487695   454A      4.490977   455A      4.511394  
     456A      4.519123   457A      4.533104   458A      4.545183  
     459A      4.551718   460A      4.559080   461A      4.563978  
     462A      4.583109   463A      4.589971   464A      4.595394  
     465A      4.597885   466A      4.616108   467A      4.624255  
     468A      4.637067   469A      4.642581   470A      4.657987  
     471A      4.664390   472A      4.682292   473A      4.691047  
     474A      4.694264   475A      4.705505   476A      4.712756  
     477A      4.721811   478A      4.748056   479A      4.760860  
     480A      4.765413   481A      4.770622   482A      4.806506  
     483A      4.810345   484A      4.846645   485A      4.852662  
     486A      4.867459   487A      4.892158   488A      4.909877  
     489A      4.948843   490A      4.959567   491A      4.999015  
     492A      5.004959   493A      5.020514   494A      5.042588  
     495A      5.056823   496A      5.067620   497A      5.078151  
     498A      5.088089   499A      5.105118   500A      5.123740  
     501A      5.135120   502A      5.146081   503A      5.157386  
     504A      5.169047   505A      5.196494   506A      5.216837  
     507A      5.225397   508A      5.259950   509A      5.267531  
     510A      5.280173   511A      5.288186   512A      5.303089  
     513A      5.328350   514A      5.332431   515A      5.339650  
     516A      5.352684   517A      5.367932   518A      5.388595  
     519A      5.406794   520A      5.426513   521A      5.447434  
     522A      5.450724   523A      5.458274   524A      5.479395  
     525A      5.488008   526A      5.537721   527A      5.545694  
     528A      5.585501   529A      5.593286   530A      5.602315  
     531A      5.605972   532A      5.623389   533A      5.631896  
     534A      5.649543   535A      5.686394   536A      5.692643  
     537A      5.707930   538A      5.717974   539A      5.765074  
     540A      5.786384   541A      5.804683   542A      5.830394  
     543A      5.888009   544A      5.903965   545A      5.932903  
     546A      5.955579   547A      5.970080   548A      5.993583  
     549A      6.095960   550A      6.100603   551A      6.126321  
     552A      6.155686   553A      6.257120   554A      6.270044  
     555A      6.295705   556A      6.320022   557A      6.325908  
     558A      6.337702   559A      6.412641   560A      6.435024  
     561A      6.466754   562A      6.486936   563A      6.598208  
     564A      6.914106   565A      6.992544   566A      7.061968  
     567A      7.114082   568A      7.281208   569A      7.301334  
     570A      7.347235   571A      7.573409   572A      7.799653  
     573A      7.983695   574A      9.237314   575A     10.227784  
     576A     12.500814   577A     12.625101   578A     13.005679  
     579A     13.104533   580A     13.243295   581A     13.468197  
     582A     13.635819   583A     13.917204   584A     14.404820  
     585A     14.682382   586A     15.821189  

    Final Occupation by Irrep:
              A 
    DOCC [    47 ]

  @DF-RHF Final Energy:  -537.59680785990804

   => Energetics <=

    Nuclear Repulsion Energy =            744.7038708985031690
    One-Electron Energy =               -2207.1187320005328729
    Two-Electron Energy =                 924.8180532421215503
    Total Energy =                       -537.5968078599080400

Computation Completed


Properties will be evaluated at   0.000000,   0.000000,   0.000000 [a0]

Properties computed using the SCF density matrix

  Nuclear Dipole Moment: [e a0]
     X:    12.4436      Y:     2.2957      Z:    -2.8219

  Electronic Dipole Moment: [e a0]
     X:   -12.3409      Y:    -1.7772      Z:     2.7045

  Dipole Moment: [e a0]
     X:     0.1028      Y:     0.5185      Z:    -0.1173     Total:     0.5415

  Dipole Moment: [D]
     X:     0.2612      Y:     1.3180      Z:    -0.2982     Total:     1.3763


*** tstop() called on skylm008.palmetto.clemson.edu at Thu Feb 10 06:37:35 2022
Module time:
	user time   =      50.05 seconds =       0.83 minutes
	system time =       2.46 seconds =       0.04 minutes
	total time  =         56 seconds =       0.93 minutes
Total time:
	user time   =      50.05 seconds =       0.83 minutes
	system time =       2.46 seconds =       0.04 minutes
	total time  =         56 seconds =       0.93 minutes
 MINTS: Wrapper to libmints.
   by Justin Turney

   Calculation information:
      Number of threads:                 1
      Number of atoms:                  27
      Number of AO shells:             214
      Number of SO shells:             214
      Number of primitives:            450
      Number of atomic orbitals:       665
      Number of basis functions:       586

      Number of irreps:                  1
      Integral cutoff                 1.00e-12
      Number of functions per irrep: [ 586 ]

 OEINTS: Overlap, kinetic, potential, dipole, and quadrupole integrals
         stored in file 35.

      Computing two-electron integrals...done
      Computed 6655563001 non-zero two-electron integrals.
        Stored in file 33.


*** tstart() called on skylm008.palmetto.clemson.edu
*** at Thu Feb 10 07:48:19 2022


	Wfn Parameters:
	--------------------
	Wavefunction         = CCSD
	Number of irreps     = 1
	Number of MOs        = 586
	Number of active MOs = 586
	AO-Basis             = NONE
	Semicanonical        = false
	Reference            = RHF
	Print Level          = 1

	IRREP	# MOs	# FZDC	# DOCC	# SOCC	# VIRT	# FZVR
	-----	-----	------	------	------	------	------
	 A	   586	    0	    47	    0	    539	    0
	Transforming integrals...
	IWL integrals will be deleted.
	(OO|OO)...
	Presorting SO-basis two-electron integrals.
	Sorting File: SO Ints (nn|nn) nbuckets = 4
	Constructing frozen core operators
	Starting first half-transformation.
	Sorting half-transformed integrals.
	First half integral transformation complete.
	Starting second half-transformation.
	Two-electron integral transformation complete.
	(OO|OV)...
	Starting second half-transformation.
	Two-electron integral transformation complete.
	(OO|VV)...
	Starting second half-transformation.
	Two-electron integral transformation complete.
	(OV|OO)...
	Starting first half-transformation.
	Sorting half-transformed integrals.
	First half integral transformation complete.
	Starting second half-transformation.
	Two-electron integral transformation complete.
	(OV|OV)...
	Starting second half-transformation.
	Two-electron integral transformation complete.
	(OV|VV)...
	Starting second half-transformation.
	Two-electron integral transformation complete.
	(VV|OO)...
	Starting first half-transformation.
	Sorting half-transformed integrals.
	First half integral transformation complete.
	Starting second half-transformation.
	Two-electron integral transformation complete.
	(VV|OV)...
	Starting second half-transformation.
	Two-electron integral transformation complete.
	(VV|VV)...
	Starting second half-transformation.
	Two-electron integral transformation complete.
	Frozen core energy     =      0.00000000000000

	Size of irrep 0 of <ab|cd> integrals:  84402.451 (MW) / 675219.612 (MB)
	Total:                                 84402.451 (MW) / 675219.612 (MB)

	Size of irrep 0 of <ia|bc> integrals:   7359.768 (MW) /  58878.148 (MB)
	Total:                                  7359.768 (MW) /  58878.148 (MB)

	Size of irrep 0 of tijab amplitudes:     641.761 (MW) /   5134.087 (MB)
	Total:                                   641.761 (MW) /   5134.087 (MB)

