
    -----------------------------------------------------------------------
          Psi4: An Open-Source Ab Initio Electronic Structure Package
                               Psi4 1.4 release

                         Git: Rev {HEAD} 9485035 


    D. G. A. Smith, L. A. Burns, A. C. Simmonett, R. M. Parrish,
    M. C. Schieber, R. Galvelis, P. Kraus, H. Kruse, R. Di Remigio,
    A. Alenaizan, A. M. James, S. Lehtola, J. P. Misiewicz, M. Scheurer,
    R. A. Shaw, J. B. Schriber, Y. Xie, Z. L. Glick, D. A. Sirianni,
    J. S. O'Brien, J. M. Waldrop, A. Kumar, E. G. Hohenstein,
    B. P. Pritchard, B. R. Brooks, H. F. Schaefer III, A. Yu. Sokolov,
    K. Patkowski, A. E. DePrince III, U. Bozkaya, R. A. King,
    F. A. Evangelista, J. M. Turney, T. D. Crawford, C. D. Sherrill,
    J. Chem. Phys. 152(18) 184108 (2020). https://doi.org/10.1063/5.0006002

                            Additional Code Authors
    E. T. Seidl, C. L. Janssen, E. F. Valeev, M. L. Leininger,
    J. F. Gonthier, R. M. Richard, H. R. McAlexander, M. Saitow, X. Wang,
    P. Verma, and M. H. Lechner

             Previous Authors, Complete List of Code Contributors,
                       and Citations for Specific Modules
    https://github.com/psi4/psi4/blob/master/codemeta.json
    https://github.com/psi4/psi4/graphs/contributors
    http://psicode.org/psi4manual/master/introduction.html#citing-psifour

    -----------------------------------------------------------------------


    Psi4 started on: Wednesday, 09 February 2022 02:44PM

    Process ID: 2671590
    Host:       skylm004.palmetto.clemson.edu
    PSIDATADIR: /home/maxbuskirk/.conda/envs/psifour/share/psi4
    Memory:     500.0 MiB
    Threads:    1
    
  ==> Input File <==

--------------------------------------------------------------------------
memory 62 GB

molecule mol {
0 1
 C     0.355130     0.111221    -1.467412
 C    -0.000000    -0.000000     0.000000
 C     0.828100     0.881905     0.953535
 C     2.091555     0.051810     1.254924
 C     2.370953    -0.722993    -0.049363
 C     0.983556    -0.988346    -0.633510
 C    -1.373576    -0.413221     0.414448
 C    -1.542792    -1.321567     1.480545
 C    -2.825059    -1.692334     1.911870
 C    -3.961673    -1.159299     1.279913
 C    -3.805653    -0.253936     0.218219
 C    -2.519836     0.117392    -0.208007
 H    -2.398432     0.829298    -1.030811
 H    -4.686419     0.165723    -0.277661
Cl    -5.553554    -1.622698     1.807905
 H    -2.939181    -2.402495     2.736730
 H    -0.656700    -1.746978     1.964470
 H     0.659437    -2.015061    -0.827996
 H    -0.405740    -0.188168    -2.193765
 H     0.996446     0.943276    -1.777222
 H     2.921789    -1.659184     0.134099
 H     2.979683    -0.115336    -0.742780
 H     1.856488    -0.672951     2.054626
 H     2.945544     0.661232     1.596113
 H     0.256631     1.122533     1.863868
 H     1.092347     1.837771     0.466059
}

set scf_type df
set basis cc-pVTZ
set reference rhf

mol.update_geometry()
mol.symmetrize(1e-3)

e, wfn = optimize('CCSD', return_wfn=True)
oeprop(wfn, "MULLIKEN_CHARGES")
mol.print_out()
print_variables()
--------------------------------------------------------------------------

  Memory set to  57.742 GiB by Python driver.

Scratch directory: /scratch1/maxbuskirk/
gradient() will perform analytic gradient computation.

*** tstart() called on skylm004.palmetto.clemson.edu
*** at Wed Feb  9 14:44:40 2022

   => Loading Basis Set <=

    Name: CC-PVTZ
    Role: ORBITAL
    Keyword: BASIS
    atoms 1-12         entry C          line   186 file /home/maxbuskirk/.conda/envs/psifour/share/psi4/basis/cc-pvtz.gbs 
    atoms 13-14, 16-26 entry H          line    23 file /home/maxbuskirk/.conda/envs/psifour/share/psi4/basis/cc-pvtz.gbs 
    atoms 15           entry CL         line   847 file /home/maxbuskirk/.conda/envs/psifour/share/psi4/basis/cc-pvtz.gbs 


         ---------------------------------------------------------
                                   SCF
               by Justin Turney, Rob Parrish, Andy Simmonett
                          and Daniel G. A. Smith
                              RHF Reference
                        1 Threads,  59127 MiB Core
         ---------------------------------------------------------

  ==> Geometry <==

    Molecular point group: c1
    Full point group: C1

    Geometry (in Angstrom), charge = 0, multiplicity = 1:

       Center              X                  Y                   Z               Mass       
    ------------   -----------------  -----------------  -----------------  -----------------
         C            1.939706593143     0.760367789201    -2.139451782716    12.000000000000
         C            1.584576593143     0.649146789201    -0.672039782716    12.000000000000
         C            2.412676593143     1.531051789201     0.281495217284    12.000000000000
         C            3.676131593143     0.700956789201     0.582884217284    12.000000000000
         C            3.955529593143    -0.073846210799    -0.721402782716    12.000000000000
         C            2.568132593143    -0.339199210799    -1.305549782716    12.000000000000
         C            0.211000593143     0.235925789201    -0.257591782716    12.000000000000
         C            0.041784593143    -0.672420210799     0.808505217284    12.000000000000
         C           -1.240482406857    -1.043187210799     1.239830217284    12.000000000000
         C           -2.377096406857    -0.510152210799     0.607873217284    12.000000000000
         C           -2.221076406857     0.395210789201    -0.453820782716    12.000000000000
         C           -0.935259406857     0.766538789201    -0.880046782716    12.000000000000
         H           -0.813855406857     1.478444789201    -1.702850782716     1.007825032230
         H           -3.101842406857     0.814869789201    -0.949700782716     1.007825032230
         CL          -3.968977406857    -0.973551210799     1.135865217284    34.968852682000
         H           -1.354604406857    -1.753348210799     2.064690217284     1.007825032230
         H            0.927876593143    -1.097831210799     1.292430217284     1.007825032230
         H            2.244013593143    -1.365914210799    -1.500035782716     1.007825032230
         H            1.178836593143     0.460978789201    -2.865804782716     1.007825032230
         H            2.581022593143     1.592422789201    -2.449261782716     1.007825032230
         H            4.506365593143    -1.010037210799    -0.537940782716     1.007825032230
         H            4.564259593143     0.533810789201    -1.414819782716     1.007825032230
         H            3.441064593143    -0.023804210799     1.382586217284     1.007825032230
         H            4.530120593143     1.310378789201     0.924073217284     1.007825032230
         H            1.841207593143     1.771679789201     1.191828217284     1.007825032230
         H            2.676923593143     2.486917789201    -0.205980782716     1.007825032230

  Running in c1 symmetry.

  Rotational constants: A =      0.07215  B =      0.01068  C =      0.01008 [cm^-1]
  Rotational constants: A =   2163.05910  B =    320.20439  C =    302.21330 [MHz]
  Nuclear repulsion =  828.497759194213927

  Charge       = 0
  Multiplicity = 1
  Electrons    = 102
  Nalpha       = 51
  Nbeta        = 51

  ==> Algorithm <==

  SCF Algorithm Type is DF.
  DIIS enabled.
  MOM disabled.
  Fractional occupation disabled.
  Guess Type is SAD.
  Energy threshold   = 1.00e-10
  Density threshold  = 1.00e-10
  Integral threshold = 1.00e-12

  ==> Primary Basis <==

  Basis Set: CC-PVTZ
    Blend: CC-PVTZ
    Number of shells: 210
    Number of basis functions: 576
    Number of Cartesian functions: 654
    Spherical Harmonics?: true
    Max angular momentum: 3

   => Loading Basis Set <=

    Name: (CC-PVTZ AUX)
    Role: JKFIT
    Keyword: DF_BASIS_SCF
    atoms 1-12         entry C          line   125 file /home/maxbuskirk/.conda/envs/psifour/share/psi4/basis/cc-pvtz-jkfit.gbs 
    atoms 13-14, 16-26 entry H          line    51 file /home/maxbuskirk/.conda/envs/psifour/share/psi4/basis/cc-pvtz-jkfit.gbs 
    atoms 15           entry CL         line   689 file /home/maxbuskirk/.conda/envs/psifour/share/psi4/basis/cc-pvtz-jkfit.gbs 

  ==> Integral Setup <==

  DFHelper Memory: AOs need 3.057 GiB; user supplied 43.306 GiB. Using in-core AOs.

  ==> MemDFJK: Density-Fitted J/K Matrices <==

    J tasked:                   Yes
    K tasked:                   Yes
    wK tasked:                   No
    OpenMP threads:               1
    Memory [MiB]:             44345
    Algorithm:                 Core
    Schwarz Cutoff:           1E-12
    Mask sparsity (%):      17.5920
    Fitting Condition:        1E-10

   => Auxiliary Basis Set <=

  Basis Set: (CC-PVTZ AUX)
    Blend: CC-PVTZ-JKFIT
    Number of shells: 467
    Number of basis functions: 1459
    Number of Cartesian functions: 1752
    Spherical Harmonics?: true
    Max angular momentum: 4

  Minimum eigenvalue in the overlap matrix is 3.2635725272E-05.
  Reciprocal condition number of the overlap matrix is 3.3983091502E-06.
    Using symmetric orthogonalization.

  ==> Pre-Iterations <==

  SCF Guess: Superposition of Atomic Densities via on-the-fly atomic UHF (no occupation information).

   -------------------------
    Irrep   Nso     Nmo    
   -------------------------
     A        576     576 
   -------------------------
    Total     576     576
   -------------------------

  ==> Iterations <==

                           Total Energy        Delta E     RMS |[F,P]|

   @DF-RHF iter SAD:  -921.77269769787426   -9.21773e+02   0.00000e+00 
   @DF-RHF iter   1:  -921.29823257888893    4.74465e-01   1.21392e-03 DIIS
   @DF-RHF iter   2:  -921.54558996025355   -2.47357e-01   6.27060e-04 DIIS
   @DF-RHF iter   3:  -921.61187446501651   -6.62845e-02   1.48890e-04 DIIS
   @DF-RHF iter   4:  -921.61703440040003   -5.15994e-03   6.61131e-05 DIIS
   @DF-RHF iter   5:  -921.61788910286737   -8.54702e-04   1.38629e-05 DIIS
   @DF-RHF iter   6:  -921.61795111345873   -6.20106e-05   5.38192e-06 DIIS
   @DF-RHF iter   7:  -921.61796324806051   -1.21346e-05   2.24822e-06 DIIS
   @DF-RHF iter   8:  -921.61796685137904   -3.60332e-06   1.20550e-06 DIIS
   @DF-RHF iter   9:  -921.61796819361143   -1.34223e-06   4.71843e-07 DIIS
   @DF-RHF iter  10:  -921.61796840187060   -2.08259e-07   1.78896e-07 DIIS
   @DF-RHF iter  11:  -921.61796842543504   -2.35644e-08   6.99497e-08 DIIS
   @DF-RHF iter  12:  -921.61796842776971   -2.33467e-09   2.34473e-08 DIIS
   @DF-RHF iter  13:  -921.61796842800163   -2.31921e-10   6.55543e-09 DIIS
   @DF-RHF iter  14:  -921.61796842801743   -1.58025e-11   1.95644e-09 DIIS
   @DF-RHF iter  15:  -921.61796842802300   -5.57066e-12   5.85546e-10 DIIS
   @DF-RHF iter  16:  -921.61796842802187    1.13687e-12   2.73476e-10 DIIS
   @DF-RHF iter  17:  -921.61796842802096    9.09495e-13   1.38614e-10 DIIS
   @DF-RHF iter  18:  -921.61796842802278   -1.81899e-12   7.44286e-11 DIIS
  Energy and wave function converged.


  ==> Post-Iterations <==

    Orbital Energies [Eh]
    ---------------------

    Doubly Occupied:                                                      

       1A   -104.837040     2A    -11.302570     3A    -11.252068  
       4A    -11.251594     5A    -11.251188     6A    -11.246544  
       7A    -11.245815     8A    -11.242479     9A    -11.233711  
      10A    -11.231868    11A    -11.228422    12A    -11.227650  
      13A    -11.226461    14A    -10.561936    15A     -8.028835  
      16A     -8.026941    17A     -8.026910    18A     -1.190471  
      19A     -1.172626    20A     -1.110866    21A     -1.036246  
      22A     -1.021129    23A     -1.000317    24A     -0.952055  
      25A     -0.849126    26A     -0.834316    27A     -0.814660  
      28A     -0.778051    29A     -0.746068    30A     -0.698677  
      31A     -0.651858    32A     -0.646010    33A     -0.632930  
      34A     -0.623349    35A     -0.592989    36A     -0.579769  
      37A     -0.570833    38A     -0.569226    39A     -0.539184  
      40A     -0.529787    41A     -0.511353    42A     -0.487810  
      43A     -0.484198    44A     -0.476286    45A     -0.473500  
      46A     -0.456374    47A     -0.451287    48A     -0.412687  
      49A     -0.391828    50A     -0.345732    51A     -0.318917  

    Virtual:                                                              

      52A      0.110500    53A      0.115819    54A      0.134161  
      55A      0.150651    56A      0.154261    57A      0.165185  
      58A      0.179167    59A      0.180623    60A      0.191755  
      61A      0.204468    62A      0.209043    63A      0.211157  
      64A      0.216255    65A      0.226152    66A      0.253920  
      67A      0.262231    68A      0.274731    69A      0.278401  
      70A      0.293267    71A      0.299864    72A      0.317604  
      73A      0.334903    74A      0.340682    75A      0.366770  
      76A      0.375022    77A      0.391120    78A      0.405079  
      79A      0.410408    80A      0.416400    81A      0.422450  
      82A      0.424647    83A      0.429475    84A      0.431457  
      85A      0.441449    86A      0.447726    87A      0.461756  
      88A      0.473019    89A      0.482736    90A      0.491419  
      91A      0.494700    92A      0.500008    93A      0.515076  
      94A      0.524587    95A      0.529241    96A      0.531920  
      97A      0.549447    98A      0.553215    99A      0.558481  
     100A      0.570374   101A      0.572912   102A      0.586257  
     103A      0.589632   104A      0.591041   105A      0.598041  
     106A      0.604740   107A      0.606062   108A      0.609552  
     109A      0.615807   110A      0.621185   111A      0.625540  
     112A      0.636527   113A      0.643742   114A      0.647195  
     115A      0.650465   116A      0.658585   117A      0.659329  
     118A      0.672647   119A      0.674237   120A      0.681328  
     121A      0.688947   122A      0.694118   123A      0.707852  
     124A      0.713152   125A      0.716618   126A      0.729082  
     127A      0.733239   128A      0.749994   129A      0.765746  
     130A      0.783925   131A      0.802731   132A      0.805061  
     133A      0.811996   134A      0.830035   135A      0.847772  
     136A      0.851520   137A      0.860309   138A      0.866151  
     139A      0.878327   140A      0.906854   141A      0.912655  
     142A      0.931816   143A      0.942683   144A      0.948271  
     145A      0.953840   146A      0.979053   147A      0.990331  
     148A      0.991869   149A      1.003383   150A      1.015647  
     151A      1.018114   152A      1.019605   153A      1.031613  
     154A      1.035748   155A      1.041299   156A      1.061298  
     157A      1.069834   158A      1.079167   159A      1.085803  
     160A      1.101621   161A      1.115682   162A      1.126735  
     163A      1.133368   164A      1.146187   165A      1.161801  
     166A      1.179554   167A      1.189806   168A      1.195625  
     169A      1.199241   170A      1.206834   171A      1.221991  
     172A      1.227508   173A      1.233858   174A      1.252627  
     175A      1.256702   176A      1.268260   177A      1.280084  
     178A      1.291867   179A      1.294232   180A      1.297904  
     181A      1.313478   182A      1.319511   183A      1.332127  
     184A      1.337606   185A      1.349026   186A      1.355764  
     187A      1.362422   188A      1.378862   189A      1.384913  
     190A      1.396029   191A      1.404484   192A      1.409866  
     193A      1.427458   194A      1.437188   195A      1.447164  
     196A      1.451146   197A      1.458604   198A      1.473521  
     199A      1.479566   200A      1.493475   201A      1.497675  
     202A      1.513030   203A      1.521072   204A      1.524661  
     205A      1.533365   206A      1.547982   207A      1.549994  
     208A      1.557499   209A      1.566799   210A      1.570603  
     211A      1.578619   212A      1.583369   213A      1.597718  
     214A      1.603800   215A      1.613124   216A      1.628340  
     217A      1.642389   218A      1.654920   219A      1.679245  
     220A      1.687850   221A      1.696110   222A      1.708869  
     223A      1.716582   224A      1.730965   225A      1.736469  
     226A      1.744932   227A      1.753057   228A      1.758411  
     229A      1.767986   230A      1.791238   231A      1.797204  
     232A      1.827097   233A      1.837021   234A      1.860460  
     235A      1.879752   236A      1.903869   237A      1.912114  
     238A      1.931237   239A      1.961189   240A      1.984916  
     241A      1.994936   242A      2.011647   243A      2.040484  
     244A      2.056410   245A      2.114209   246A      2.130046  
     247A      2.160419   248A      2.172767   249A      2.251507  
     250A      2.257766   251A      2.277505   252A      2.320139  
     253A      2.332209   254A      2.351418   255A      2.371609  
     256A      2.387124   257A      2.398455   258A      2.419630  
     259A      2.430017   260A      2.441547   261A      2.464444  
     262A      2.474437   263A      2.479179   264A      2.493557  
     265A      2.547717   266A      2.562974   267A      2.583842  
     268A      2.589680   269A      2.594466   270A      2.618330  
     271A      2.631719   272A      2.641889   273A      2.649890  
     274A      2.659237   275A      2.663908   276A      2.674887  
     277A      2.683126   278A      2.699343   279A      2.704640  
     280A      2.710453   281A      2.738849   282A      2.741970  
     283A      2.763521   284A      2.783862   285A      2.795376  
     286A      2.805499   287A      2.810191   288A      2.819059  
     289A      2.831299   290A      2.841379   291A      2.847130  
     292A      2.862473   293A      2.864298   294A      2.871842  
     295A      2.880491   296A      2.888637   297A      2.901849  
     298A      2.912805   299A      2.928781   300A      2.930965  
     301A      2.944850   302A      2.960254   303A      2.981333  
     304A      2.993131   305A      3.003187   306A      3.007245  
     307A      3.014375   308A      3.020200   309A      3.028636  
     310A      3.041866   311A      3.047459   312A      3.058581  
     313A      3.065333   314A      3.075510   315A      3.086827  
     316A      3.093671   317A      3.104654   318A      3.123144  
     319A      3.145510   320A      3.154783   321A      3.161396  
     322A      3.163759   323A      3.181506   324A      3.191126  
     325A      3.209689   326A      3.224176   327A      3.237944  
     328A      3.244729   329A      3.252454   330A      3.260947  
     331A      3.263892   332A      3.276608   333A      3.287854  
     334A      3.289857   335A      3.304903   336A      3.315697  
     337A      3.335470   338A      3.339126   339A      3.345524  
     340A      3.355749   341A      3.366756   342A      3.370516  
     343A      3.375455   344A      3.381343   345A      3.392390  
     346A      3.396451   347A      3.405184   348A      3.410836  
     349A      3.414976   350A      3.420994   351A      3.424052  
     352A      3.430338   353A      3.444210   354A      3.449153  
     355A      3.451979   356A      3.461818   357A      3.465226  
     358A      3.481244   359A      3.496889   360A      3.502233  
     361A      3.516610   362A      3.524308   363A      3.530598  
     364A      3.544605   365A      3.547671   366A      3.552101  
     367A      3.568942   368A      3.580020   369A      3.585620  
     370A      3.598354   371A      3.612053   372A      3.612513  
     373A      3.617543   374A      3.635074   375A      3.646236  
     376A      3.651495   377A      3.661385   378A      3.664982  
     379A      3.676719   380A      3.685329   381A      3.685864  
     382A      3.700355   383A      3.708204   384A      3.722652  
     385A      3.732058   386A      3.735164   387A      3.751844  
     388A      3.764292   389A      3.772696   390A      3.781504  
     391A      3.801805   392A      3.810481   393A      3.822973  
     394A      3.836253   395A      3.843435   396A      3.865272  
     397A      3.875119   398A      3.889710   399A      3.893158  
     400A      3.897765   401A      3.902874   402A      3.924256  
     403A      3.931566   404A      3.941555   405A      3.949991  
     406A      3.979648   407A      3.982516   408A      3.991126  
     409A      3.998553   410A      4.006045   411A      4.031656  
     412A      4.039141   413A      4.052178   414A      4.059138  
     415A      4.068693   416A      4.072592   417A      4.085710  
     418A      4.087957   419A      4.096763   420A      4.112978  
     421A      4.122276   422A      4.129713   423A      4.134931  
     424A      4.136745   425A      4.146771   426A      4.153539  
     427A      4.176075   428A      4.183751   429A      4.188292  
     430A      4.197809   431A      4.211213   432A      4.221115  
     433A      4.230703   434A      4.246263   435A      4.271275  
     436A      4.273566   437A      4.281975   438A      4.292512  
     439A      4.298988   440A      4.307423   441A      4.314475  
     442A      4.320300   443A      4.340276   444A      4.346583  
     445A      4.366711   446A      4.375680   447A      4.383209  
     448A      4.386447   449A      4.407422   450A      4.410202  
     451A      4.422522   452A      4.431837   453A      4.443485  
     454A      4.449303   455A      4.455481   456A      4.468951  
     457A      4.478796   458A      4.490105   459A      4.506923  
     460A      4.513673   461A      4.528216   462A      4.536215  
     463A      4.551620   464A      4.557524   465A      4.567110  
     466A      4.585401   467A      4.591673   468A      4.601931  
     469A      4.616202   470A      4.617144   471A      4.621464  
     472A      4.632669   473A      4.634759   474A      4.650460  
     475A      4.658019   476A      4.665608   477A      4.676209  
     478A      4.679663   479A      4.708596   480A      4.712875  
     481A      4.714770   482A      4.732010   483A      4.747969  
     484A      4.754600   485A      4.782157   486A      4.794636  
     487A      4.805874   488A      4.827662   489A      4.841584  
     490A      4.864684   491A      4.882981   492A      4.922623  
     493A      4.940750   494A      4.951535   495A      4.956988  
     496A      5.018100   497A      5.020624   498A      5.024920  
     499A      5.051182   500A      5.061937   501A      5.075099  
     502A      5.081504   503A      5.087749   504A      5.104869  
     505A      5.133630   506A      5.143087   507A      5.160683  
     508A      5.183112   509A      5.203016   510A      5.222937  
     511A      5.245023   512A      5.259091   513A      5.287532  
     514A      5.291352   515A      5.302171   516A      5.328935  
     517A      5.336231   518A      5.347716   519A      5.355307  
     520A      5.368233   521A      5.392748   522A      5.407057  
     523A      5.433214   524A      5.442328   525A      5.453759  
     526A      5.467433   527A      5.479081   528A      5.501751  
     529A      5.518967   530A      5.541474   531A      5.566940  
     532A      5.578232   533A      5.600937   534A      5.611893  
     535A      5.627415   536A      5.651628   537A      5.663314  
     538A      5.688173   539A      5.714577   540A      5.776170  
     541A      5.791391   542A      5.804558   543A      5.820885  
     544A      5.831658   545A      5.863597   546A      5.874776  
     547A      5.906272   548A      5.972305   549A      6.001256  
     550A      6.038762   551A      6.089834   552A      6.165386  
     553A      6.201615   554A      6.215708   555A      6.248219  
     556A      6.319017   557A      6.357793   558A      6.362686  
     559A      6.382228   560A      6.428157   561A      6.452298  
     562A      6.518044   563A      6.690287   564A      6.982665  
     565A      9.068902   566A     11.977693   567A     12.315420  
     568A     12.448175   569A     12.681752   570A     13.113336  
     571A     13.216870   572A     13.364885   573A     13.731186  
     574A     13.817263   575A     13.931246   576A     15.766375  

    Final Occupation by Irrep:
              A 
    DOCC [    51 ]

  @DF-RHF Final Energy:  -921.61796842802278

   => Energetics <=

    Nuclear Repulsion Energy =            828.4977591942139270
    One-Electron Energy =               -2905.4863586065457639
    Two-Electron Energy =                1155.3706309843091731
    Total Energy =                       -921.6179684280227775

Computation Completed


Properties will be evaluated at   0.000000,   0.000000,   0.000000 [a0]

Properties computed using the SCF density matrix

  Nuclear Dipole Moment: [e a0]
     X:    25.4027      Y:     5.7647      Z:    -5.5123

  Electronic Dipole Moment: [e a0]
     X:   -24.5140      Y:    -5.5578      Z:     5.2795

  Dipole Moment: [e a0]
     X:     0.8887      Y:     0.2070      Z:    -0.2328     Total:     0.9417

  Dipole Moment: [D]
     X:     2.2588      Y:     0.5260      Z:    -0.5917     Total:     2.3935


*** tstop() called on skylm004.palmetto.clemson.edu at Wed Feb  9 14:45:41 2022
Module time:
	user time   =      53.59 seconds =       0.89 minutes
	system time =       2.56 seconds =       0.04 minutes
	total time  =         61 seconds =       1.02 minutes
Total time:
	user time   =      53.59 seconds =       0.89 minutes
	system time =       2.56 seconds =       0.04 minutes
	total time  =         61 seconds =       1.02 minutes
 MINTS: Wrapper to libmints.
   by Justin Turney

   Calculation information:
      Number of threads:                 1
      Number of atoms:                  26
      Number of AO shells:             210
      Number of SO shells:             210
      Number of primitives:            476
      Number of atomic orbitals:       654
      Number of basis functions:       576

      Number of irreps:                  1
      Integral cutoff                 1.00e-12
      Number of functions per irrep: [ 576 ]

 OEINTS: Overlap, kinetic, potential, dipole, and quadrupole integrals
         stored in file 35.

      Computing two-electron integrals...done
      Computed 6959107894 non-zero two-electron integrals.
        Stored in file 33.


*** tstart() called on skylm004.palmetto.clemson.edu
*** at Wed Feb  9 16:02:47 2022


	Wfn Parameters:
	--------------------
	Wavefunction         = CCSD
	Number of irreps     = 1
	Number of MOs        = 576
	Number of active MOs = 576
	AO-Basis             = NONE
	Semicanonical        = false
	Reference            = RHF
	Print Level          = 1

	IRREP	# MOs	# FZDC	# DOCC	# SOCC	# VIRT	# FZVR
	-----	-----	------	------	------	------	------
	 A	   576	    0	    51	    0	    525	    0
	Transforming integrals...
	IWL integrals will be deleted.
	(OO|OO)...
	Presorting SO-basis two-electron integrals.
	Sorting File: SO Ints (nn|nn) nbuckets = 4
	Constructing frozen core operators
	Starting first half-transformation.
	Sorting half-transformed integrals.
	First half integral transformation complete.
	Starting second half-transformation.
	Two-electron integral transformation complete.
	(OO|OV)...
	Starting second half-transformation.
	Two-electron integral transformation complete.
	(OO|VV)...
	Starting second half-transformation.
	Two-electron integral transformation complete.
	(OV|OO)...
	Starting first half-transformation.
	Sorting half-transformed integrals.
	First half integral transformation complete.
	Starting second half-transformation.
	Two-electron integral transformation complete.
	(OV|OV)...
	Starting second half-transformation.
	Two-electron integral transformation complete.
	(OV|VV)...
	Starting second half-transformation.
	Two-electron integral transformation complete.
	(VV|OO)...
	Starting first half-transformation.
	Sorting half-transformed integrals.
	First half integral transformation complete.
	Starting second half-transformation.
	Two-electron integral transformation complete.
	(VV|OV)...
	Starting second half-transformation.
	Two-electron integral transformation complete.
	(VV|VV)...
	Starting second half-transformation.
	Two-electron integral transformation complete.
	Frozen core energy     =      0.00000000000000

	Size of irrep 0 of <ab|cd> integrals:  75969.141 (MW) / 607753.125 (MB)
	Total:                                 75969.141 (MW) / 607753.125 (MB)

	Size of irrep 0 of <ia|bc> integrals:   7379.859 (MW) /  59038.875 (MB)
	Total:                                  7379.859 (MW) /  59038.875 (MB)

	Size of irrep 0 of tijab amplitudes:     716.901 (MW) /   5735.205 (MB)
	Total:                                   716.901 (MW) /   5735.205 (MB)

