
    -----------------------------------------------------------------------
          Psi4: An Open-Source Ab Initio Electronic Structure Package
                               Psi4 1.4 release

                         Git: Rev {HEAD} 9485035 


    D. G. A. Smith, L. A. Burns, A. C. Simmonett, R. M. Parrish,
    M. C. Schieber, R. Galvelis, P. Kraus, H. Kruse, R. Di Remigio,
    A. Alenaizan, A. M. James, S. Lehtola, J. P. Misiewicz, M. Scheurer,
    R. A. Shaw, J. B. Schriber, Y. Xie, Z. L. Glick, D. A. Sirianni,
    J. S. O'Brien, J. M. Waldrop, A. Kumar, E. G. Hohenstein,
    B. P. Pritchard, B. R. Brooks, H. F. Schaefer III, A. Yu. Sokolov,
    K. Patkowski, A. E. DePrince III, U. Bozkaya, R. A. King,
    F. A. Evangelista, J. M. Turney, T. D. Crawford, C. D. Sherrill,
    J. Chem. Phys. 152(18) 184108 (2020). https://doi.org/10.1063/5.0006002

                            Additional Code Authors
    E. T. Seidl, C. L. Janssen, E. F. Valeev, M. L. Leininger,
    J. F. Gonthier, R. M. Richard, H. R. McAlexander, M. Saitow, X. Wang,
    P. Verma, and M. H. Lechner

             Previous Authors, Complete List of Code Contributors,
                       and Citations for Specific Modules
    https://github.com/psi4/psi4/blob/master/codemeta.json
    https://github.com/psi4/psi4/graphs/contributors
    http://psicode.org/psi4manual/master/introduction.html#citing-psifour

    -----------------------------------------------------------------------


    Psi4 started on: Thursday, 17 February 2022 03:23PM

    Process ID: 95345
    Host:       skylm003.palmetto.clemson.edu
    PSIDATADIR: /home/maxbuskirk/.conda/envs/psifour/share/psi4
    Memory:     500.0 MiB
    Threads:    1
    
  ==> Input File <==

--------------------------------------------------------------------------
memory 62 GB

molecule mol {
1 1
    C            1.429769582465    -0.900993816231     0.434317692532
    C            0.317808792808    -0.107421231312     0.096035307232
    C           -0.611194268753    -0.602563677974    -0.849034938781
    C           -0.445753705082    -1.865628122408    -1.413481566791
    C            0.671771933762    -2.657073166101    -1.066061276222
    C            1.611128315219    -2.165676270824    -0.142337489007
    C            0.211372686156     1.273286492436     0.670446411793
    C            0.125732551202     2.463454474375    -0.298069083494
    C           -1.360759078302     2.846603480401    -0.415104482850
    C           -1.859774421462     2.768057447277     1.034205255320
    C           -1.269957637735     1.506473163923     1.676159796441
    C            0.541140857535     1.485770007884     2.014708406043
    O            0.769442687245    -3.865802789238    -1.660941667357
    H            2.185560828769    -0.529079633713     1.135150197048
    H            2.488507971974    -2.763844123211     0.126394705385
    H           -1.167016932641    -2.260892296316    -2.133640119510
    H           -1.485824054190    -0.011486869093    -1.138533922688
    H            0.733336022404     0.645630143119     2.690159738233
    H            0.739599086828     2.494598371024     2.394030404915
    H           -1.905606727851     2.128222790940    -1.052276290677
    H           -1.496435170270     3.846658155529    -0.856615660166
    H           -2.959768420092     2.717317511068     1.117373867210
    H           -1.528254777990     3.653931318165     1.605965194610
    H           -1.720981086995     0.534560316461     1.408107191139
    H            0.593422762201     2.184038378663    -1.253383696681
    H            0.687447330568     3.312953925254     0.129347006581
    H           -1.341884503805     1.557109407138     2.802896387121
    H            1.571346700013    -4.311275455969    -1.353749502347
}

set scf_type df
set opt_type ts
set basis cc-pVDZ
set reference rhf
set geom_maxiter 400


mol.update_geometry()
mol.symmetrize(1e-3)

e, wfn = optimize('CCSD', return_wfn=True)
oeprop(wfn, "MULLIKEN_CHARGES")
mol.print_out()
print_variables()
--------------------------------------------------------------------------

  Memory set to  57.742 GiB by Python driver.

Scratch directory: /scratch1/maxbuskirk/
gradient() will perform analytic gradient computation.

*** tstart() called on skylm003.palmetto.clemson.edu
*** at Thu Feb 17 15:23:05 2022

   => Loading Basis Set <=

    Name: CC-PVDZ
    Role: ORBITAL
    Keyword: BASIS
    atoms 1-12  entry C          line   138 file /home/maxbuskirk/.conda/envs/psifour/share/psi4/basis/cc-pvdz.gbs 
    atoms 13    entry O          line   198 file /home/maxbuskirk/.conda/envs/psifour/share/psi4/basis/cc-pvdz.gbs 
    atoms 14-28 entry H          line    22 file /home/maxbuskirk/.conda/envs/psifour/share/psi4/basis/cc-pvdz.gbs 


         ---------------------------------------------------------
                                   SCF
               by Justin Turney, Rob Parrish, Andy Simmonett
                          and Daniel G. A. Smith
                              RHF Reference
                        1 Threads,  59127 MiB Core
         ---------------------------------------------------------

  ==> Geometry <==

    Molecular point group: c1
    Full point group: C1

    Geometry (in Angstrom), charge = 1, multiplicity = 1:

       Center              X                  Y                   Z               Mass       
    ------------   -----------------  -----------------  -----------------  -----------------
         C            1.429769582465    -0.900993816231     0.434317692532    12.000000000000
         C            0.317808792808    -0.107421231312     0.096035307232    12.000000000000
         C           -0.611194268753    -0.602563677974    -0.849034938781    12.000000000000
         C           -0.445753705082    -1.865628122408    -1.413481566791    12.000000000000
         C            0.671771933762    -2.657073166101    -1.066061276222    12.000000000000
         C            1.611128315219    -2.165676270824    -0.142337489007    12.000000000000
         C            0.211372686156     1.273286492436     0.670446411793    12.000000000000
         C            0.125732551202     2.463454474375    -0.298069083494    12.000000000000
         C           -1.360759078302     2.846603480401    -0.415104482850    12.000000000000
         C           -1.859774421462     2.768057447277     1.034205255320    12.000000000000
         C           -1.269957637735     1.506473163923     1.676159796441    12.000000000000
         C            0.541140857535     1.485770007884     2.014708406043    12.000000000000
         O            0.769442687245    -3.865802789238    -1.660941667357    15.994914619570
         H            2.185560828769    -0.529079633713     1.135150197048     1.007825032230
         H            2.488507971974    -2.763844123211     0.126394705385     1.007825032230
         H           -1.167016932641    -2.260892296316    -2.133640119510     1.007825032230
         H           -1.485824054190    -0.011486869093    -1.138533922688     1.007825032230
         H            0.733336022404     0.645630143119     2.690159738233     1.007825032230
         H            0.739599086828     2.494598371024     2.394030404915     1.007825032230
         H           -1.905606727851     2.128222790940    -1.052276290677     1.007825032230
         H           -1.496435170270     3.846658155529    -0.856615660166     1.007825032230
         H           -2.959768420092     2.717317511068     1.117373867210     1.007825032230
         H           -1.528254777990     3.653931318165     1.605965194610     1.007825032230
         H           -1.720981086995     0.534560316461     1.408107191139     1.007825032230
         H            0.593422762201     2.184038378663    -1.253383696681     1.007825032230
         H            0.687447330568     3.312953925254     0.129347006581     1.007825032230
         H           -1.341884503805     1.557109407138     2.802896387121     1.007825032230
         H            1.571346700013    -4.311275455969    -1.353749502347     1.007825032230

  Running in c1 symmetry.

  Rotational constants: A =      0.06588  B =      0.01493  C =      0.01361 [cm^-1]
  Rotational constants: A =   1975.16991  B =    447.62741  C =    407.96462 [MHz]
  Nuclear repulsion =  775.227854057828608

  Charge       = 1
  Multiplicity = 1
  Electrons    = 94
  Nalpha       = 47
  Nbeta        = 47

  ==> Algorithm <==

  SCF Algorithm Type is DF.
  DIIS enabled.
  MOM disabled.
  Fractional occupation disabled.
  Guess Type is SAD.
  Energy threshold   = 1.00e-10
  Density threshold  = 1.00e-10
  Integral threshold = 1.00e-12

  ==> Primary Basis <==

  Basis Set: CC-PVDZ
    Blend: CC-PVDZ
    Number of shells: 123
    Number of basis functions: 257
    Number of Cartesian functions: 270
    Spherical Harmonics?: true
    Max angular momentum: 2

   => Loading Basis Set <=

    Name: (CC-PVDZ AUX)
    Role: JKFIT
    Keyword: DF_BASIS_SCF
    atoms 1-12  entry C          line   121 file /home/maxbuskirk/.conda/envs/psifour/share/psi4/basis/cc-pvdz-jkfit.gbs 
    atoms 13    entry O          line   221 file /home/maxbuskirk/.conda/envs/psifour/share/psi4/basis/cc-pvdz-jkfit.gbs 
    atoms 14-28 entry H          line    51 file /home/maxbuskirk/.conda/envs/psifour/share/psi4/basis/cc-pvdz-jkfit.gbs 

  ==> Integral Setup <==

  DFHelper Memory: AOs need 0.572 GiB; user supplied 43.306 GiB. Using in-core AOs.

  ==> MemDFJK: Density-Fitted J/K Matrices <==

    J tasked:                   Yes
    K tasked:                   Yes
    wK tasked:                   No
    OpenMP threads:               1
    Memory [MiB]:             44345
    Algorithm:                 Core
    Schwarz Cutoff:           1E-12
    Mask sparsity (%):      11.0675
    Fitting Condition:        1E-10

   => Auxiliary Basis Set <=

  Basis Set: (CC-PVDZ AUX)
    Blend: CC-PVDZ-JKFIT
    Number of shells: 447
    Number of basis functions: 1255
    Number of Cartesian functions: 1428
    Spherical Harmonics?: true
    Max angular momentum: 3

  Minimum eigenvalue in the overlap matrix is 3.3682834121E-04.
  Reciprocal condition number of the overlap matrix is 4.7989866079E-05.
    Using symmetric orthogonalization.

  ==> Pre-Iterations <==

  SCF Guess: Superposition of Atomic Densities via on-the-fly atomic UHF (no occupation information).

   -------------------------
    Irrep   Nso     Nmo    
   -------------------------
     A        257     257 
   -------------------------
    Total     257     257
   -------------------------

  ==> Iterations <==

                           Total Energy        Delta E     RMS |[F,P]|

   @DF-RHF iter SAD:  -537.49666492326173   -5.37497e+02   0.00000e+00 
   @DF-RHF iter   1:  -537.51468596765005   -1.80210e-02   2.33806e-03 DIIS
   @DF-RHF iter   2:  -537.73455352446786   -2.19868e-01   9.60113e-04 DIIS
   @DF-RHF iter   3:  -537.76606092658369   -3.15074e-02   2.66388e-04 DIIS
   @DF-RHF iter   4:  -537.76987501763460   -3.81409e-03   6.23119e-05 DIIS
   @DF-RHF iter   5:  -537.77006403959342   -1.89022e-04   2.26189e-05 DIIS
   @DF-RHF iter   6:  -537.77009752285289   -3.34833e-05   7.66594e-06 DIIS
   @DF-RHF iter   7:  -537.77010291208296   -5.38923e-06   3.51731e-06 DIIS
   @DF-RHF iter   8:  -537.77010425837886   -1.34630e-06   1.49139e-06 DIIS
   @DF-RHF iter   9:  -537.77010466219031   -4.03811e-07   7.87794e-07 DIIS
   @DF-RHF iter  10:  -537.77010475396241   -9.17721e-08   3.36473e-07 DIIS
   @DF-RHF iter  11:  -537.77010477446959   -2.05072e-08   9.64657e-08 DIIS
   @DF-RHF iter  12:  -537.77010477555882   -1.08923e-09   3.62430e-08 DIIS
   @DF-RHF iter  13:  -537.77010477566455   -1.05729e-10   1.33689e-08 DIIS
   @DF-RHF iter  14:  -537.77010477568012   -1.55751e-11   3.57784e-09 DIIS
   @DF-RHF iter  15:  -537.77010477568319   -3.06954e-12   1.75294e-09 DIIS
   @DF-RHF iter  16:  -537.77010477568285    3.41061e-13   8.22964e-10 DIIS
   @DF-RHF iter  17:  -537.77010477568433   -1.47793e-12   3.61125e-10 DIIS
   @DF-RHF iter  18:  -537.77010477568535   -1.02318e-12   1.24802e-10 DIIS
   @DF-RHF iter  19:  -537.77010477568365    1.70530e-12   5.57542e-11 DIIS
  Energy and wave function converged.


  ==> Post-Iterations <==

    Orbital Energies [Eh]
    ---------------------

    Doubly Occupied:                                                      

       1A    -20.710219     2A    -11.488058     3A    -11.482946  
       4A    -11.460838     5A    -11.443569     6A    -11.402263  
       7A    -11.401338     8A    -11.396433     9A    -11.392617  
      10A    -11.391489    11A    -11.386988    12A    -11.370780  
      13A    -11.367238    14A     -1.528996    15A     -1.360670  
      16A     -1.279510    17A     -1.216723    18A     -1.170744  
      19A     -1.154330    20A     -1.133117    21A     -1.038696  
      22A     -0.996868    23A     -0.973438    24A     -0.961361  
      25A     -0.923879    26A     -0.863763    27A     -0.856032  
      28A     -0.814747    29A     -0.792107    30A     -0.788260  
      31A     -0.781609    32A     -0.758130    33A     -0.740955  
      34A     -0.722711    35A     -0.710708    36A     -0.706229  
      37A     -0.695064    38A     -0.692721    39A     -0.663289  
      40A     -0.645033    41A     -0.640714    42A     -0.634952  
      43A     -0.628174    44A     -0.616188    45A     -0.602130  
      46A     -0.475481    47A     -0.444078  

    Virtual:                                                              

      48A     -0.058686    49A     -0.009182    50A     -0.000265  
      51A      0.017926    52A      0.045794    53A      0.049810  
      54A      0.057851    55A      0.074041    56A      0.088991  
      57A      0.091601    58A      0.098532    59A      0.103007  
      60A      0.120152    61A      0.120254    62A      0.137655  
      63A      0.146957    64A      0.152112    65A      0.164167  
      66A      0.194755    67A      0.207861    68A      0.226087  
      69A      0.231524    70A      0.242828    71A      0.269962  
      72A      0.287068    73A      0.301412    74A      0.314601  
      75A      0.334440    76A      0.348377    77A      0.355335  
      78A      0.376604    79A      0.424264    80A      0.448586  
      81A      0.454625    82A      0.467655    83A      0.490370  
      84A      0.497932    85A      0.510374    86A      0.515018  
      87A      0.533178    88A      0.558609    89A      0.565098  
      90A      0.577483    91A      0.583129    92A      0.594166  
      93A      0.604281    94A      0.606147    95A      0.614382  
      96A      0.628340    97A      0.635340    98A      0.649393  
      99A      0.660791   100A      0.666406   101A      0.676011  
     102A      0.684821   103A      0.699795   104A      0.702529  
     105A      0.705917   106A      0.712596   107A      0.716801  
     108A      0.724947   109A      0.730315   110A      0.738297  
     111A      0.748930   112A      0.757823   113A      0.761361  
     114A      0.765490   115A      0.768353   116A      0.776618  
     117A      0.785701   118A      0.788187   119A      0.801058  
     120A      0.823136   121A      0.832667   122A      0.847175  
     123A      0.864417   124A      0.888339   125A      0.934538  
     126A      0.955008   127A      0.969899   128A      0.995182  
     129A      1.006294   130A      1.035766   131A      1.046849  
     132A      1.054646   133A      1.060160   134A      1.082707  
     135A      1.096176   136A      1.102533   137A      1.132098  
     138A      1.137928   139A      1.155964   140A      1.162645  
     141A      1.168648   142A      1.180494   143A      1.199051  
     144A      1.213647   145A      1.234520   146A      1.249951  
     147A      1.273530   148A      1.292931   149A      1.299936  
     150A      1.335050   151A      1.342591   152A      1.368417  
     153A      1.400759   154A      1.425223   155A      1.458060  
     156A      1.469037   157A      1.484006   158A      1.490139  
     159A      1.508599   160A      1.512355   161A      1.540697  
     162A      1.587226   163A      1.608646   164A      1.620130  
     165A      1.622689   166A      1.640443   167A      1.646220  
     168A      1.666626   169A      1.671067   170A      1.680369  
     171A      1.697825   172A      1.709261   173A      1.728023  
     174A      1.734413   175A      1.749308   176A      1.754981  
     177A      1.757926   178A      1.768159   179A      1.776751  
     180A      1.778534   181A      1.782468   182A      1.786807  
     183A      1.798880   184A      1.813287   185A      1.822319  
     186A      1.835403   187A      1.841859   188A      1.849883  
     189A      1.856827   190A      1.869953   191A      1.892348  
     192A      1.908577   193A      1.919327   194A      1.920995  
     195A      1.927955   196A      1.935753   197A      1.948810  
     198A      1.968681   199A      1.973301   200A      1.980117  
     201A      1.987136   202A      1.997970   203A      2.008295  
     204A      2.017797   205A      2.050546   206A      2.063034  
     207A      2.081305   208A      2.107743   209A      2.112037  
     210A      2.119897   211A      2.134738   212A      2.170434  
     213A      2.196062   214A      2.208046   215A      2.224319  
     216A      2.231886   217A      2.252641   218A      2.264864  
     219A      2.285880   220A      2.292388   221A      2.311030  
     222A      2.323002   223A      2.334965   224A      2.359370  
     225A      2.374103   226A      2.404171   227A      2.412231  
     228A      2.419700   229A      2.455016   230A      2.465144  
     231A      2.492749   232A      2.529359   233A      2.573135  
     234A      2.592664   235A      2.602321   236A      2.625068  
     237A      2.640204   238A      2.662056   239A      2.691360  
     240A      2.732301   241A      2.765737   242A      2.797946  
     243A      2.811263   244A      2.818645   245A      2.848722  
     246A      2.862983   247A      2.891029   248A      2.924868  
     249A      2.953085   250A      3.041353   251A      3.108756  
     252A      3.137744   253A      3.221235   254A      3.449455  
     255A      3.563752   256A      3.769933   257A      4.067456  

    Final Occupation by Irrep:
              A 
    DOCC [    47 ]

  @DF-RHF Final Energy:  -537.77010477568365

   => Energetics <=

    Nuclear Repulsion Energy =            775.2278540578286083
    One-Electron Energy =               -2252.5835529794680951
    Two-Electron Energy =                 939.5855941459558380
    Total Energy =                       -537.7701047756836488

Computation Completed


Properties will be evaluated at   0.000000,   0.000000,   0.000000 [a0]

Properties computed using the SCF density matrix

  Nuclear Dipole Moment: [e a0]
     X:    -4.3148      Y:    12.3546      Z:     5.2617

  Electronic Dipole Moment: [e a0]
     X:     4.3683      Y:   -10.4663      Z:    -3.2439

  Dipole Moment: [e a0]
     X:     0.0535      Y:     1.8883      Z:     2.0179     Total:     2.7641

  Dipole Moment: [D]
     X:     0.1359      Y:     4.7995      Z:     5.1289     Total:     7.0256


*** tstop() called on skylm003.palmetto.clemson.edu at Thu Feb 17 15:23:27 2022
Module time:
	user time   =      19.08 seconds =       0.32 minutes
	system time =       0.98 seconds =       0.02 minutes
	total time  =         22 seconds =       0.37 minutes
Total time:
	user time   =      19.08 seconds =       0.32 minutes
	system time =       0.98 seconds =       0.02 minutes
	total time  =         22 seconds =       0.37 minutes
 MINTS: Wrapper to libmints.
   by Justin Turney

   Calculation information:
      Number of threads:                 1
      Number of atoms:                  28
      Number of AO shells:             123
      Number of SO shells:             123
      Number of primitives:            361
      Number of atomic orbitals:       270
      Number of basis functions:       257

      Number of irreps:                  1
      Integral cutoff                 1.00e-12
      Number of functions per irrep: [ 257 ]

 OEINTS: Overlap, kinetic, potential, dipole, and quadrupole integrals
         stored in file 35.

      Computing two-electron integrals...done
      Computed 352152903 non-zero two-electron integrals.
        Stored in file 33.


*** tstart() called on skylm003.palmetto.clemson.edu
*** at Thu Feb 17 15:29:14 2022


	Wfn Parameters:
	--------------------
	Wavefunction         = CCSD
	Number of irreps     = 1
	Number of MOs        = 257
	Number of active MOs = 257
	AO-Basis             = NONE
	Semicanonical        = false
	Reference            = RHF
	Print Level          = 1

	IRREP	# MOs	# FZDC	# DOCC	# SOCC	# VIRT	# FZVR
	-----	-----	------	------	------	------	------
	 A	   257	    0	    47	    0	    210	    0
	Transforming integrals...
	IWL integrals will be deleted.
	(OO|OO)...
	Presorting SO-basis two-electron integrals.
	Sorting File: SO Ints (nn|nn) nbuckets = 1
	Constructing frozen core operators
	Starting first half-transformation.
	Sorting half-transformed integrals.
	First half integral transformation complete.
	Starting second half-transformation.
	Two-electron integral transformation complete.
	(OO|OV)...
	Starting second half-transformation.
	Two-electron integral transformation complete.
	(OO|VV)...
	Starting second half-transformation.
	Two-electron integral transformation complete.
	(OV|OO)...
	Starting first half-transformation.
	Sorting half-transformed integrals.
	First half integral transformation complete.
	Starting second half-transformation.
	Two-electron integral transformation complete.
	(OV|OV)...
	Starting second half-transformation.
	Two-electron integral transformation complete.
	(OV|VV)...
	Starting second half-transformation.
	Two-electron integral transformation complete.
	(VV|OO)...
	Starting first half-transformation.
	Sorting half-transformed integrals.
	First half integral transformation complete.
	Starting second half-transformation.
	Two-electron integral transformation complete.
	(VV|OV)...
	Starting second half-transformation.
	Two-electron integral transformation complete.
	(VV|VV)...
	Starting second half-transformation.
	Two-electron integral transformation complete.
	Frozen core energy     =      0.00000000000000

	Size of irrep 0 of <ab|cd> integrals:   1944.810 (MW) /  15558.480 (MB)
	Total:                                  1944.810 (MW) /  15558.480 (MB)

	Size of irrep 0 of <ia|bc> integrals:    435.267 (MW) /   3482.136 (MB)
	Total:                                   435.267 (MW) /   3482.136 (MB)

	Size of irrep 0 of tijab amplitudes:      97.417 (MW) /    779.335 (MB)
	Total:                                    97.417 (MW) /    779.335 (MB)

	Nuclear Rep. energy          =    775.22785405782861
	SCF energy                   =   -537.77010477568365
	One-electron energy          =  -2252.58355288101347
	Two-electron energy          =    939.58486186346715
	Reference energy             =   -537.77083695971760

*** tstop() called on skylm003.palmetto.clemson.edu at Thu Feb 17 15:40:45 2022
Module time:
	user time   =     281.43 seconds =       4.69 minutes
	system time =     134.01 seconds =       2.23 minutes
	total time  =        691 seconds =      11.52 minutes
Total time:
	user time   =     509.22 seconds =       8.49 minutes
	system time =     146.52 seconds =       2.44 minutes
	total time  =       1060 seconds =      17.67 minutes
            **************************
            *                        *
            *        CCENERGY        *
            *                        *
            **************************

    Nuclear Rep. energy (wfn)     =  775.227854057828608
    SCF energy          (wfn)     = -537.770104775683649
    Reference energy    (file100) = -537.770836959717599

    Input parameters:
    -----------------
    Wave function   =     CCSD
    Reference wfn   =     RHF
    Brueckner       =     No
    Memory (Mbytes) =     62000.0
    Maxiter         =     50
    R_Convergence   =     1.0e-07
    E_Convergence   =     1.0e-08
    Restart         =     Yes
    DIIS            =     Yes
    AO Basis        =     NONE
    ABCD            =     NEW
    Cache Level     =     2
    Cache Type      =     LOW
    Print Level     =     1
    Num. of threads =     1
    # Amps to Print =     10
    Print MP2 Amps? =     No
    Analyze T2 Amps =     No
    Print Pair Ener =     No
    Local CC        =     No
    SCS-MP2         =     False
    SCSN-MP2        =     False
    SCS-CCSD        =     False

MP2 correlation energy -1.8302241692879875
                Solving CC Amplitude Equations
                ------------------------------
  Iter             Energy              RMS        T1Diag      D1Diag    New D1Diag    D2Diag
  ----     ---------------------    ---------   ----------  ----------  ----------   --------
     0        -1.830224169287987    0.000e+00    0.000000    0.000000    0.000000    0.177744
     1        -1.855834900080331    1.324e-01    0.007867    0.032355    0.032355    0.166400
     2        -1.904800870325861    4.614e-02    0.007859    0.029725    0.029725    0.179069
     3        -1.916686447827046    2.100e-02    0.009189    0.039080    0.039080    0.182855
     4        -1.916919186374413    6.773e-03    0.009411    0.040038    0.040038    0.184225
     5        -1.916935469237873    3.587e-03    0.009569    0.041808    0.041808    0.185215
     6        -1.917035513138511    1.124e-03    0.009634    0.042591    0.042591    0.185523
     7        -1.917022168411467    5.513e-04    0.009655    0.042844    0.042844    0.185563
     8        -1.917002601282220    2.550e-04    0.009664    0.042967    0.042967    0.185564
     9        -1.917006222182848    1.314e-04    0.009669    0.043034    0.043034    0.185559
    10        -1.917006484934203    7.231e-05    0.009672    0.043061    0.043061    0.185551
    11        -1.917003914245883    3.015e-05    0.009673    0.043065    0.043065    0.185547
    12        -1.917003235289388    1.457e-05    0.009673    0.043067    0.043067    0.185547
    13        -1.917002524049909    5.699e-06    0.009673    0.043064    0.043064    0.185547
    14        -1.917002330012294    2.440e-06    0.009673    0.043064    0.043064    0.185547
    15        -1.917002280199029    1.038e-06    0.009673    0.043063    0.043063    0.185547
    16        -1.917002258756688    4.857e-07    0.009673    0.043063    0.043063    0.185547
    17        -1.917002258683359    1.941e-07    0.009673    0.043063    0.043063    0.185547
    18        -1.917002259049365    1.012e-07    0.009673    0.043063    0.043063    0.185547
    19        -1.917002258267055    4.440e-08    0.009673    0.043063    0.043063    0.185547

    Iterations converged.


    Largest TIA Amplitudes:
             45  46        -0.0186712852
             44   2        -0.0175920117
             35   2        -0.0174574828
             45   1        -0.0164566362
             46   0         0.0149626796
             40   0        -0.0115839143
             34   2         0.0115782328
             34   0        -0.0107715056
             39   4         0.0107128822
             44  40        -0.0103684666

    Largest TIjAb Amplitudes:
     45  45   1   1        -0.0774782797
     46  46   2   2        -0.0385288397
     46  46   1   1        -0.0338049488
     45  46   2   1         0.0287790725
     46  45   1   2         0.0287790725
     46  46   0   2         0.0205181286
     46  46   2   0         0.0205181286
     46  46   2   3         0.0188802259
     46  46   3   2         0.0188802259
     44  45   1  21        -0.0185888053

    SCF energy       (wfn)                    = -537.770104775683649
    Reference energy (file100)                = -537.770836959717599

    Opposite-spin MP2 correlation energy      =   -1.353080245227788
    Same-spin MP2 correlation energy          =   -0.477143924060199
    Singles MP2 correlation energy            =   -0.000000000000000
    MP2 correlation energy                    =   -1.830224169287987
      * MP2 total energy                      = -539.601061129005529

    Opposite-spin CCSD correlation energy     =   -1.487590130428112
    Same-spin CCSD correlation energy         =   -0.429412127838943
    Singles CCSD correlation energy           =    0.000000000000000
    CCSD correlation energy                   =   -1.917002258267055
      * CCSD total energy                     = -539.687839217984674


			**************************
			*                        *
			*         CCHBAR         *
			*                        *
			**************************


			**************************
			*        CCLAMBDA        *
			**************************


	Nuclear Rep. energy (wfn)     =  775.227854057828608
	Reference           (wfn)     =                    0
	SCF energy          (wfn)     = -537.770104775683649
	Reference energy    (CC_INFO) = -537.770836959717599
	CCSD energy         (CC_INFO) =   -1.917002258267055
	Total CCSD energy   (CC_INFO) = -539.687839217984674

	Input parameters:
	-----------------
	Maxiter           =     50
	Convergence       = 1.0e-07
	Restart           =     No
	Cache Level       =     2
	Model III         =     No
	DIIS              =     Yes
	AO Basis          =     No
	ABCD              =     NEW
	Local CC          =     No
	Parameters for left-handed eigenvectors:
	    Irr   Root  Ground-State?    EOM energy        R0
	  1   0     0        Yes       0.0000000000   1.0000000000
	Labels for eigenvector 1:
	LIA 0 -1, Lia 0 -1, LIJAB 0 -1, Lijab 0 -1, LIjAb 0 -1, 2LIjAb - LIjbA 0 -1
	Symmetry of left-hand state: A
	Symmetry of left-hand eigenvector: A

	          Solving Lambda Equations
	          ------------------------
	Iter     PseudoEnergy or Norm         RMS  
	----     ---------------------     --------
	   0        -1.917149692740692    0.000e+00
	   1        -1.861440095272926    3.695e-02
	   2        -1.856264701320090    7.864e-03
	   3        -1.854925240897866    4.293e-03
	   4        -1.854508454572424    1.649e-03
	   5        -1.854607869269235    9.437e-04
	   6        -1.854638088774526    3.776e-04
	   7        -1.854624239671630    2.000e-04
	   8        -1.854626200225949    9.462e-05
	   9        -1.854629377358491    4.505e-05
	  10        -1.854628239842259    1.959e-05
	  11        -1.854628685250831    8.621e-06
	  12        -1.854628589799634    3.940e-06
	  13        -1.854628404976332    1.761e-06
	  14        -1.854628405530047    8.331e-07
	  15        -1.854628392055084    3.790e-07
	  16        -1.854628385846374    1.825e-07
	  17        -1.854628388044438    7.882e-08

	Largest LIA Amplitudes:
	         45  46        -0.0148529453
	         35   2        -0.0121498083
	         45   1        -0.0120659238
	         44   2        -0.0120655813
	         46   0         0.0090313248
	         39   4         0.0081346665
	         44  40        -0.0080920108
	         40   0        -0.0080387915
	         34   2         0.0078303635
	         34   0        -0.0077539326

	Largest LIjAb Amplitudes:
	 45  45   1   1        -0.0728075256
	 46  46   2   2        -0.0358380907
	 46  46   1   1        -0.0301748445
	 45  46   2   1         0.0272924362
	 46  45   1   2         0.0272924362
	 46  46   0   2         0.0190636983
	 46  46   2   0         0.0190636983
	 46  46   2   3         0.0176027892
	 46  46   3   2         0.0176027892
	 44  45   1  21        -0.0175739585

	Iterations converged.

	Overlap <L|e^T> =        0.29161510620

			**************************
			*                        *
			*        CCDENSITY       *
			*                        *
			**************************


	Input parameters:
	-----------------
	Wave function    =   CCSD
	Reference wfn    =   RHF
	Dertype          = 1
	Tolerance        = 1.0e-14
	Cache Level      = 2
	AO Basis         = No
	OPDM Only        = No
	Relax OPDM       = Yes
	Compute Xi       = No
	Use Zeta         = No
	Xi connected     = Yes
	Compute NO       = No

	Nuclear Rep. energy (wfn)     =  775.227854057828608
	SCF energy          (wfn)     = -537.770104775683649
	Reference energy    (file100) = -537.770836959717599
	CCSD energy         (CC_INFO) =   -1.917002258267055
	Total CCSD energy   (CC_INFO) = -539.687839217984674
	Number of States = 1

	Ground?  State     EOM Energy       R0
	  Yes     0  A    0.0000000000   1.00000000

	Virial Theorem Data:
	--------------------
	Kinetic energy (ref)   =  536.859887026410888
	Kinetic energy (corr)  =    1.788115062538951
	Kinetic energy (total) =  538.648002088949852
	-V/T (ref)             =    2.001696811319527
	-V/T (corr)            =    2.072079922835109
	-V/T (total)           =    2.001930457599401
    Molecular point group: c1
    Full point group: C1

    Geometry (in Bohr), charge = 1, multiplicity = 1:

       Center              X                  Y                   Z       
    ------------   -----------------  -----------------  -----------------
         C            2.701872933369    -1.702631553408     0.820741490326
         C            0.600571578670    -0.202996707239     0.181480429043
         C           -1.154989777393    -1.138680324520    -1.604443505241
         C           -0.842352422013    -3.525526203303    -2.671093044618
         C            1.269464973579    -5.021140579234    -2.014563845016
         C            3.044591268734    -4.092535028260    -0.268978871609
         C            0.399436487237     2.406162749949     1.266960100085
         C            0.237600086827     4.655254279102    -0.563268934270
         C           -2.571461980721     5.379300965733    -0.784433786036
         C           -3.514464311695     5.230870474887     1.954364690064
         C           -2.399872126253     2.846821695166     3.167482957776
         C            1.022608016037     2.807698400320     3.807247110079
         O            1.454035948129    -7.305308526691    -3.138724861666
         H            4.130111396902    -0.999815606275     2.145122983680
         H            4.702598528049    -5.222908446325     0.238851376885
         H           -2.205342386463    -4.272467239195    -4.031995476163
         H           -2.807800533036    -0.021707036625    -2.151517298424
         H            1.385804240276     1.220064148835     5.083665138994
         H            1.397639716744     4.714107714248     4.524061801308
         H           -3.601074818468     4.021758208834    -1.988513997692
         H           -2.827852636313     7.269130412208    -1.618768992492
         H           -5.593151708753     5.134985891829     2.111530588770
         H           -2.887982980323     6.904929472565     3.034834384830
         H           -3.252182921513     1.010172595649     2.660936946540
         H            1.121406497173     4.127234383162    -2.368551916841
         H            1.299087180451     6.260575584990     0.244430417586
         H           -2.535794204187     2.942510326865     5.296706529694
         H            2.969414911167    -8.147129863190    -2.558215801911

	Presorting MO-basis TPDM.
	Sorting File: MO TPDM (AA|AA) nbuckets = 1
	Starting first half-transformation.
	Sorting half-transformed TPDM.
	First half integral transformation complete.


  -Total gradient:
     Atom            X                  Y                   Z
    ------   -----------------  -----------------  -----------------
       1        0.000442293138     0.000621108003    -0.000628786181
       2        0.000449262910    -0.001560414500    -0.002000735247
       3       -0.000424888027     0.000024459425     0.000974578295
       4        0.000372481154    -0.000661003253    -0.000187508220
       5       -0.000390570068     0.001025191512     0.000253252012
       6       -0.000105221193    -0.000194942302    -0.000172624739
       7       -0.020676125653     0.006572930266     0.017930940804
       8        0.001352691117    -0.000072687373    -0.002294273877
       9        0.001104257282     0.000818277253    -0.001048175586
      10        0.000553734978    -0.001456867728     0.000127857947
      11        0.008853045454    -0.000560323779    -0.027131762290
      12        0.013404339603    -0.003139630266    -0.001002868194
      13       -0.000135657980    -0.000799963319    -0.000495543303
      14        0.000153133270     0.000158154068     0.000286331073
      15        0.000192828924    -0.000102328402     0.000187690721
      16       -0.000201077986     0.000100376266    -0.000138818450
      17       -0.000372814750     0.000110735386    -0.000037547279
      18       -0.000042740007     0.000162305478     0.000677112525
      19       -0.001206696673     0.000352564735     0.000809728635
      20       -0.000423203974    -0.000231626875    -0.000279077009
      21       -0.000195128727     0.000157786883    -0.000360111261
      22       -0.000734931152     0.000121357942    -0.000064019667
      23        0.000136922133     0.000456799637     0.000277863534
      24       -0.002599738482    -0.004076450391     0.000742434778
      25        0.000690640618     0.000339601427     0.000087695422
      26       -0.000289682092     0.000412126449     0.000345671554
      27       -0.000160201841     0.001435549755     0.012991955822
      28        0.000253048025    -0.000013086309     0.000148738179


			-----------------------------------------
			 OPTKING 2.0: for geometry optimizations 
			  - R.A. King,  Bethel University        
			-----------------------------------------

	Internal coordinates to be generated automatically.
	Detected frag 1 with atoms:  1 2 3 4 5 6 7 8 9 10 11 12 13 14 15 16 17 18 19 20
	 21 22 23 24 25 26 27 28
	---Fragment 1 Bond Connectivity---
	 1 : 2 6 14
	 2 : 1 3 7
	 3 : 2 4 17
	 4 : 3 5 16
	 5 : 4 6 13
	 6 : 1 5 15
	 7 : 2 8 11 12
	 8 : 7 9 25 26
	 9 : 8 10 20 21
	 10 : 9 11 22 23
	 11 : 7 10 12 24 27
	 12 : 7 11 18 19
	 13 : 5 28
	 14 : 1
	 15 : 6
	 16 : 4
	 17 : 3
	 18 : 12
	 19 : 12
	 20 : 9
	 21 : 9
	 22 : 10
	 23 : 10
	 24 : 11
	 25 : 8
	 26 : 8
	 27 : 11
	 28 : 13

	---Fragment 1 Geometry and Gradient---
	 C           2.7018729334       -1.7026315534        0.8207414903
	 C           0.6005715787       -0.2029967072        0.1814804290
	 C          -1.1549897774       -1.1386803245       -1.6044435052
	 C          -0.8423524220       -3.5255262033       -2.6710930446
	 C           1.2694649736       -5.0211405792       -2.0145638450
	 C           3.0445912687       -4.0925350283       -0.2689788716
	 C           0.3994364872        2.4061627499        1.2669601001
	 C           0.2376000868        4.6552542791       -0.5632689343
	 C          -2.5714619807        5.3793009657       -0.7844337860
	 C          -3.5144643117        5.2308704749        1.9543646901
	 C          -2.3998721263        2.8468216952        3.1674829578
	 C           1.0226080160        2.8076984003        3.8072471101
	 O           1.4540359481       -7.3053085267       -3.1387248617
	 H           4.1301113969       -0.9998156063        2.1451229837
	 H           4.7025985280       -5.2229084463        0.2388513769
	 H          -2.2053423865       -4.2724672392       -4.0319954762
	 H          -2.8078005330       -0.0217070366       -2.1515172984
	 H           1.3858042403        1.2200641488        5.0836651390
	 H           1.3976397167        4.7141077142        4.5240618013
	 H          -3.6010748185        4.0217582088       -1.9885139977
	 H          -2.8278526363        7.2691304122       -1.6187689925
	 H          -5.5931517088        5.1349858918        2.1115305888
	 H          -2.8879829803        6.9049294726        3.0348343848
	 H          -3.2521829215        1.0101725956        2.6609369465
	 H           1.1214064972        4.1272343832       -2.3685519168
	 H           1.2990871805        6.2605755850        0.2444304176
	 H          -2.5357942042        2.9425103269        5.2967065297
	 H           2.9694149112       -8.1471298632       -2.5582158019
	             0.0004422931        0.0006211080       -0.0006287862
	             0.0004492629       -0.0015604145       -0.0020007352
	            -0.0004248880        0.0000244594        0.0009745783
	             0.0003724812       -0.0006610033       -0.0001875082
	            -0.0003905701        0.0010251915        0.0002532520
	            -0.0001052212       -0.0001949423       -0.0001726247
	            -0.0206761257        0.0065729303        0.0179309408
	             0.0013526911       -0.0000726874       -0.0022942739
	             0.0011042573        0.0008182773       -0.0010481756
	             0.0005537350       -0.0014568677        0.0001278579
	             0.0088530455       -0.0005603238       -0.0271317623
	             0.0134043396       -0.0031396303       -0.0010028682
	            -0.0001356580       -0.0007999633       -0.0004955433
	             0.0001531333        0.0001581541        0.0002863311
	             0.0001928289       -0.0001023284        0.0001876907
	            -0.0002010780        0.0001003763       -0.0001388184
	            -0.0003728148        0.0001107354       -0.0000375473
	            -0.0000427400        0.0001623055        0.0006771125
	            -0.0012066967        0.0003525647        0.0008097286
	            -0.0004232040       -0.0002316269       -0.0002790770
	            -0.0001951287        0.0001577869       -0.0003601113
	            -0.0007349312        0.0001213579       -0.0000640197
	             0.0001369221        0.0004567996        0.0002778635
	            -0.0025997385       -0.0040764504        0.0007424348
	             0.0006906406        0.0003396014        0.0000876954
	            -0.0002896821        0.0004121264        0.0003456716
	            -0.0001602018        0.0014355498        0.0129919558
	             0.0002530480       -0.0000130863        0.0001487382

	Previous optimization step data not found.  Starting new optimization.

	---Fragment 1 Intrafragment Coordinates---
	 - Coordinate -           - BOHR/RAD -       - ANG/DEG -
	 R(1,2)           =         2.659516	       1.407355
	 R(1,6)           =         2.648884	       1.401729
	 R(1,14)          =         2.070701	       1.095768
	 R(2,3)           =         2.673392	       1.414698
	 R(2,7)           =         2.833096	       1.499210
	 R(3,4)           =         2.632967	       1.393306
	 R(3,17)          =         2.068502	       1.094604
	 R(4,5)           =         2.669769	       1.412781
	 R(4,16)          =         2.065846	       1.093198
	 R(5,6)           =         2.657150	       1.406103
	 R(5,13)          =         2.552494	       1.350722
	 R(6,15)          =         2.069933	       1.095362
	 R(7,8)           =         2.904194	       1.536833
	 R(7,11)          =         3.412081	       1.805595
	 R(7,12)          =         2.646249	       1.400334
	 R(8,9)           =         2.909293	       1.539532
	 R(8,25)          =         2.078212	       1.099742
	 R(8,26)          =         2.087149	       1.104472
	 R(9,10)          =         2.900397	       1.534824
	 R(9,20)          =         2.086345	       1.104046
	 R(9,21)          =         2.081660	       1.101567
	 R(10,11)         =         2.897872	       1.533488
	 R(10,22)         =         2.086824	       1.104300
	 R(10,23)         =         2.088628	       1.105254
	 R(11,12)         =         3.481982	       1.842586
	 R(11,24)         =         2.087176	       1.104486
	 R(11,27)         =         2.135702	       1.130165
	 R(12,18)         =         2.069236	       1.094992
	 R(12,19)         =         2.070958	       1.095904
	 R(13,28)         =         1.828121	       0.967400
	 B(1,2,3)         =         2.073807	     118.820389
	 B(1,2,7)         =         2.075220	     118.901354
	 B(1,6,5)         =         2.093389	     119.942373
	 B(1,6,15)        =         2.089099	     119.696557
	 B(2,1,6)         =         2.108409	     120.802913
	 B(2,1,14)        =         2.102863	     120.485176
	 B(2,3,4)         =         2.105910	     120.659736
	 B(2,3,17)        =         2.108769	     120.823578
	 B(2,7,8)         =         2.066573	     118.405884
	 B(2,7,11)        =         1.972072	     112.991411
	 B(2,7,12)        =         2.083834	     119.394873
	 B(3,2,7)         =         2.131363	     122.118099
	 B(3,4,5)         =         2.096868	     120.141659
	 B(3,4,16)        =         2.113322	     121.084449
	 B(4,3,17)        =         2.068317	     118.505843
	 B(4,5,6)         =         2.087725	     119.617853
	 B(4,5,13)        =         2.037794	     116.756994
	 B(5,4,16)        =         2.072974	     118.772640
	 B(5,6,15)        =         2.100684	     120.360316
	 B(5,13,28)       =         1.909394	     109.400226
	 B(6,1,14)        =         2.071568	     118.692099
	 B(6,5,13)        =         2.157664	     123.625067
	 B(7,8,9)         =         1.869674	     107.124456
	 B(7,8,25)        =         1.903900	     109.085439
	 B(7,8,26)        =         1.900146	     108.870350
	 B(7,11,10)       =         1.760558	     100.872551
	 B(7,11,12)       =         0.787665	      45.129883
	 B(7,11,24)       =         1.657098	      94.944709
	 B(7,11,27)       =         2.231038	     127.829086
	 B(7,12,11)       =         1.152568	      66.037305
	 B(7,12,18)       =         2.114217	     121.135713
	 B(7,12,19)       =         2.111331	     120.970334
	 B(8,7,11)        =         1.777555	     101.846420
	 B(8,7,12)        =         2.095065	     120.038393
	 B(8,9,10)        =         1.802264	     103.262128
	 B(8,9,20)        =         1.937387	     111.004091
	 B(8,9,21)        =         1.955551	     112.044810
	 B(9,8,25)        =         1.990858	     114.067766
	 B(9,8,26)        =         1.906104	     109.211691
	 B(9,10,11)       =         1.888461	     108.200867
	 B(9,10,22)       =         1.979401	     113.411347
	 B(9,10,23)       =         1.928312	     110.484149
	 B(10,9,20)       =         1.929669	     110.561882
	 B(10,9,21)       =         1.965881	     112.636710
	 B(10,11,12)      =         2.053541	     117.659207
	 B(10,11,24)      =         2.054747	     117.728318
	 B(10,11,27)      =         1.934797	     110.855687
	 B(11,7,12)       =         1.201359	      68.832812
	 B(11,10,22)      =         1.889985	     108.288148
	 B(11,10,23)      =         1.904420	     109.115211
	 B(11,12,18)      =         1.869709	     107.126450
	 B(11,12,19)      =         1.804158	     103.370618
	 B(12,11,24)      =         2.022037	     115.854175
	 B(12,11,27)      =         1.450386	      83.100995
	 B(18,12,19)      =         2.049916	     117.451527
	 B(20,9,21)       =         1.874045	     107.374878
	 B(22,10,23)      =         1.871975	     107.256279
	 B(24,11,27)      =         1.829053	     104.797034
	 B(25,8,26)       =         1.891567	     108.378825
	 D(1,2,3,4)       =         0.024733	       1.417115
	 D(1,2,3,17)      =        -3.138079	    -179.798690
	 D(1,2,7,8)       =         2.120463	     121.493583
	 D(1,2,7,11)      =        -2.087846	    -119.624770
	 D(1,2,7,12)      =        -0.729833	     -41.816349
	 D(1,6,5,4)       =         0.007699	       0.441141
	 D(1,6,5,13)      =        -3.135817	    -179.669108
	 D(2,1,6,5)       =        -0.005286	      -0.302862
	 D(2,1,6,15)      =         3.130815	     179.382511
	 D(2,3,4,5)       =        -0.022579	      -1.293664
	 D(2,3,4,16)      =         3.126204	     179.118304
	 D(2,7,8,9)       =         1.724326	      98.796576
	 D(2,7,8,25)      =        -0.438638	     -25.132091
	 D(2,7,8,26)      =        -2.499687	    -143.221539
	 D(2,7,11,10)     =        -2.226070	    -127.544421
	 D(2,7,11,12)     =         1.990468	     114.045430
	 D(2,7,11,24)     =        -0.140691	      -8.061000
	 D(2,7,11,27)     =         1.832624	     105.001615
	 D(2,7,12,11)     =        -1.836518	    -105.224738
	 D(2,7,12,18)     =        -0.157505	      -9.024363
	 D(2,7,12,19)     =         2.847469	     163.147951
	 D(3,2,1,6)       =        -0.010746	      -0.615729
	 D(3,2,1,14)      =         3.102217	     177.743967
	 D(3,2,7,8)       =        -0.939862	     -53.850100
	 D(3,2,7,11)      =         1.135015	      65.031547
	 D(3,2,7,12)      =         2.493028	     142.839968
	 D(3,4,5,6)       =         0.006172	       0.353642
	 D(3,4,5,13)      =        -3.133626	    -179.543549
	 D(4,3,2,7)       =         3.085121	     176.764431
	 D(4,5,6,15)      =        -3.128365	    -179.242119
	 D(4,5,13,28)     =         3.133984	     179.564071
	 D(5,4,3,17)      =         3.139750	     179.894440
	 D(5,6,1,14)      =        -3.118754	    -178.691460
	 D(6,1,2,7)       =        -3.073784	    -176.114823
	 D(6,5,4,16)      =         3.140740	     179.951135
	 D(6,5,13,28)     =        -0.005735	      -0.328593
	 D(7,2,1,14)      =         0.039180	       2.244873
	 D(7,2,3,17)      =        -0.077691	      -4.451375
	 D(7,8,9,10)      =         0.744385	      42.650094
	 D(7,8,9,20)      =        -1.323670	     -75.840728
	 D(7,8,9,21)      =         2.864449	     164.120836
	 D(7,11,10,9)     =         0.437590	      25.072051
	 D(7,11,10,22)    =         2.589758	     148.382186
	 D(7,11,10,23)    =        -1.661235	     -95.181746
	 D(7,11,12,18)    =        -2.043322	    -117.073712
	 D(7,11,12,19)    =         2.063691	     118.240765
	 D(7,12,11,10)    =        -1.347710	     -77.218081
	 D(7,12,11,24)    =         1.216165	      69.681130
	 D(7,12,11,27)    =         3.016204	     172.815732
	 D(8,7,11,10)     =         0.009663	       0.553673
	 D(8,7,11,12)     =        -2.056984	    -117.856476
	 D(8,7,11,24)     =         2.095043	     120.037094
	 D(8,7,11,27)     =        -2.214828	    -126.900290
	 D(8,7,12,11)     =         1.601192	      91.741552
	 D(8,7,12,18)     =        -3.002980	    -172.058074
	 D(8,7,12,19)     =         0.001994	       0.114240
	 D(8,9,10,11)     =        -0.745141	     -42.693414
	 D(8,9,10,22)     =        -2.842214	    -162.846879
	 D(8,9,10,23)     =         1.338679	      76.700645
	 D(9,8,7,11)      =        -0.449529	     -25.756139
	 D(9,8,7,12)      =        -1.710493	     -98.004007
	 D(9,10,11,12)    =         1.218293	      69.803033
	 D(9,10,11,24)    =        -1.334685	     -76.471826
	 D(9,10,11,27)    =         2.843662	     162.929811
	 D(10,9,8,25)     =         2.853086	     163.469791
	 D(10,9,8,26)     =        -1.310900	     -75.109016
	 D(10,11,7,12)    =         2.066647	     118.410149
	 D(10,11,12,18)   =         2.892154	     165.708207
	 D(10,11,12,19)   =         0.715981	      41.022683
	 D(11,7,8,25)     =        -2.612493	    -149.684806
	 D(11,7,8,26)     =         1.609643	      92.225747
	 D(11,7,12,18)    =         1.679013	      96.200374
	 D(11,7,12,19)    =        -1.599198	     -91.627312
	 D(11,10,9,20)    =         1.328277	      76.104663
	 D(11,10,9,21)    =        -2.858214	    -163.763617
	 D(12,7,8,25)     =         2.409729	     138.067326
	 D(12,7,8,26)     =         0.348680	      19.977879
	 D(12,7,11,24)    =        -2.131159	    -122.106430
	 D(12,7,11,27)    =        -0.157844	      -9.043815
	 D(12,11,10,22)   =        -2.912725	    -166.886832
	 D(12,11,10,23)   =        -0.880532	     -50.450763
	 D(13,5,4,16)     =         0.000942	       0.053945
	 D(13,5,6,15)     =         0.011303	       0.647633
	 D(14,1,6,15)     =         0.017347	       0.993914
	 D(16,4,3,17)     =         0.005348	       0.306408
	 D(18,12,11,24)   =        -0.827157	     -47.392582
	 D(18,12,11,27)   =         0.972882	      55.742020
	 D(19,12,11,24)   =        -3.003330	    -172.078105
	 D(19,12,11,27)   =        -1.203291	     -68.943504
	 D(20,9,8,25)     =         0.785031	      44.978968
	 D(20,9,8,26)     =         2.904231	     166.400162
	 D(20,9,10,22)    =        -0.768797	     -44.048803
	 D(20,9,10,23)    =        -2.871089	    -164.501278
	 D(21,9,8,25)     =        -1.310035	     -75.059467
	 D(21,9,8,26)     =         0.809165	      46.361727
	 D(21,9,10,22)    =         1.327897	      76.082918
	 D(21,9,10,23)    =        -0.774395	     -44.369558
	 D(22,10,11,24)   =         0.817483	      46.838308
	 D(22,10,11,27)   =        -1.287356	     -73.760054
	 D(23,10,11,24)   =         2.849675	     163.274377
	 D(23,10,11,27)   =         0.744837	      42.676014
	 R(3,9)           =         6.720334	       3.556248

	Current energy   :      -539.6878392180

	Generating empirical Hessian (Schlegel '84) for each fragment.
	Taking PRFO optimization step.
	Maximizing along 1 lowest eigenvalue of Hessian.

 RFO min eigenvalues
 -0.003729 -0.000000 -0.000000 -0.000000 -0.000000 -0.000000 -0.000000 -0.000000
 -0.000000 -0.000000 -0.000000 -0.000000 -0.000000 -0.000000 -0.000000 -0.000000
 -0.000000 -0.000000 -0.000000 -0.000000 -0.000000 -0.000000 -0.000000 -0.000000
 -0.000000 -0.000000 -0.000000 -0.000000 -0.000000 -0.000000 -0.000000 -0.000000
 -0.000000 -0.000000 -0.000000 -0.000000 -0.000000 -0.000000 -0.000000 -0.000000
 -0.000000 -0.000000 -0.000000 -0.000000 -0.000000 -0.000000 -0.000000 -0.000000
 -0.000000 -0.000000 -0.000000 -0.000000 -0.000000 -0.000000 -0.000000  0.000000
  0.000000  0.000000  0.000000  0.000000  0.000000  0.000000  0.000000  0.000000
  0.000000  0.000000  0.000000  0.000000  0.000000  0.000000  0.000000  0.000000
  0.000000  0.000000  0.000000  0.000000  0.000000  0.000000  0.000000  0.000000
  0.000000  0.000000  0.000000  0.000000  0.000000  0.000000  0.000000  0.000000
  0.000000  0.000000  0.000000  0.000000  0.000000  0.000000  0.000000  0.000000
  0.000000  0.000000  0.000000  0.000000  0.000000  0.000000  0.000000  0.000000
  0.000000  0.000000  0.000000  0.000000  0.000000  0.000000  0.000000  0.000000
  0.000000  0.003129  0.004995  0.005409  0.011464  0.012099  0.013737  0.016010
  0.016706  0.017246  0.017471  0.017517  0.017638  0.017677  0.017754  0.018145
  0.024335  0.027461  0.029726  0.032318  0.036050  0.038324  0.043197  0.048218
  0.050557  0.054259  0.056715  0.061389  0.067199  0.068927  0.072728  0.074871
  0.076757  0.078199  0.086480  0.096609  0.105793  0.111041  0.114798  0.137320
  0.156267  0.159937  0.159966  0.159997  0.159998  0.160000  0.200279  0.219992
  0.230428  0.240777  0.250000  0.260532  0.263478  0.275227  0.286473  0.306105
  0.313805  0.331078  0.331924  0.331970  0.332113  0.332387  0.335095  0.337106
  0.341392  0.341546  0.342003  0.342420  0.342860  0.344456  0.356686  0.400842
  0.409096  0.438086  0.440360  0.448492  0.462741  0.539117  0.548682

 RFO max eigenvalues
 -0.000000  0.000000
	|RFO target step|  :        0.3160020181
	RFO gradient       :       -0.0117996216
	RFO hessian        :        0.0336311596
	Projected Delta(E) :       -0.0018634656

	Back-transformation to cartesian coordinates...
	Successfully converged to displaced geometry.
	First geometry is closer to target in internal coordinates, so am using that one.
	First geometry has RMS(Delta(q)) = 1.97e-03

	--- Internal Coordinate Step in ANG or DEG, aJ/ANG or AJ/DEG ---
	 ---------------------------------------------------------------------------
	   Coordinate                Previous        Force       Change         New 
	   ----------                --------       ------       ------       ------
	    1 R(1,2)          =      1.407355     0.000725     0.002034     1.409389
	    2 R(1,6)          =      1.401729    -0.001990    -0.000217     1.401512
	    3 R(1,14)         =      1.095768    -0.002822     0.000490     1.096258
	    4 R(2,3)          =      1.414698    -0.000404     0.001270     1.415968
	    5 R(2,7)          =      1.499210    -0.014992    -0.003351     1.495859
	    6 R(3,4)          =      1.393306    -0.004156    -0.000493     1.392813
	    7 R(3,17)         =      1.094604    -0.003028     0.001204     1.095809
	    8 R(4,5)          =      1.412781     0.000654     0.002128     1.414909
	    9 R(4,16)         =      1.093198    -0.001547     0.000760     1.093958
	   10 R(5,6)          =      1.406103    -0.002038     0.001057     1.407160
	   11 R(5,13)         =      1.350722    -0.007322    -0.000830     1.349892
	   12 R(6,15)         =      1.095362    -0.002113     0.001022     1.096384
	   13 R(7,8)          =      1.536833    -0.019984    -0.002117     1.534716
	   14 R(7,11)         =      1.805595     0.077728     0.045315     1.850911
	   15 R(7,12)         =      1.400334     0.009720     0.003079     1.403413
	   16 R(8,9)          =      1.539532     0.016209     0.004908     1.544440
	   17 R(8,25)         =      1.099742    -0.001081     0.001238     1.100981
	   18 R(8,26)         =      1.104472    -0.002499     0.000308     1.104780
	   19 R(9,10)         =      1.534824     0.009535     0.000016     1.534840
	   20 R(9,20)         =      1.104046    -0.004290    -0.000318     1.103728
	   21 R(9,21)         =      1.101567    -0.002567    -0.000388     1.101179
	   22 R(10,11)        =      1.533488    -0.005096    -0.001969     1.531519
	   23 R(10,22)        =      1.104300    -0.005946    -0.000612     1.103688
	   24 R(10,23)        =      1.105254    -0.004538    -0.000546     1.104708
	   25 R(11,12)        =      1.842586    -0.013990    -0.016478     1.826108
	   26 R(11,24)        =      1.104486    -0.036816    -0.006973     1.097513
	   27 R(11,27)        =      1.130165    -0.107326    -0.021887     1.108278
	   28 R(12,18)        =      1.094992    -0.002353    -0.000249     1.094743
	   29 R(12,19)        =      1.095904    -0.003183    -0.000501     1.095403
	   30 R(13,28)        =      0.967400    -0.002168     0.001225     0.968625
	   31 B(1,2,3)        =    118.820389    -0.000021     0.045929   118.866317
	   32 B(1,2,7)        =    118.901354     0.000022     0.115750   119.017103
	   33 B(1,6,5)        =    119.942373    -0.000001    -0.061742   119.880632
	   34 B(1,6,15)       =    119.696557     0.000009     0.024096   119.720653
	   35 B(2,1,6)        =    120.802913     0.000014     0.009454   120.812366
	   36 B(2,1,14)       =    120.485176    -0.000000     0.087024   120.572200
	   37 B(2,3,4)        =    120.659736     0.000008    -0.061981   120.597755
	   38 B(2,3,17)       =    120.823578    -0.000008     0.059911   120.883489
	   39 B(2,7,8)        =    118.405884     0.000043     0.521265   118.927149
	   40 B(2,7,11)       =    112.991411     0.000085     0.009560   113.000971
	   41 B(2,7,12)       =    119.394873     0.000091     0.268667   119.663539
	   42 B(3,2,7)        =    122.118099    -0.000001    -0.171975   121.946124
	   43 B(3,4,5)        =    120.141659     0.000010     0.013722   120.155382
	   44 B(3,4,16)       =    121.084449     0.000009    -0.012519   121.071931
	   45 B(4,3,17)       =    118.505843    -0.000000     0.001963   118.507805
	   46 B(4,5,6)        =    119.617853    -0.000010     0.049026   119.666879
	   47 B(4,5,13)       =    116.756994    -0.000011    -0.057691   116.699302
	   48 B(5,4,16)       =    118.772640    -0.000019    -0.001870   118.770770
	   49 B(5,6,15)       =    120.360316    -0.000007     0.037435   120.397751
	   50 B(5,13,28)      =    109.400226     0.000018     0.069919   109.470145
	   51 B(6,1,14)       =    118.692099    -0.000014    -0.100798   118.591300
	   52 B(6,5,13)       =    123.625067     0.000021     0.008454   123.633522
	   53 B(7,8,9)        =    107.124456    -0.000036     0.361093   107.485549
	   54 B(7,8,25)       =    109.085439    -0.000039    -0.197335   108.888104
	   55 B(7,8,26)       =    108.870350     0.000056    -0.021518   108.848832
	   56 B(7,11,10)      =    100.872551    -0.000069    -0.094176   100.778375
	   57 B(7,11,12)      =     45.129883    -0.000037    -0.261681    44.868202
	   58 B(7,11,24)      =     94.944709    -0.000020    -0.877564    94.067145
	   59 B(7,11,27)      =    127.829086     0.000040     0.121116   127.950202
	   60 B(7,12,11)      =     66.037305     0.000315     2.464611    68.501916
	   61 B(7,12,18)      =    121.135713    -0.000062    -0.396135   120.739578
	   62 B(7,12,19)      =    120.970334    -0.000019    -0.084298   120.886036
	   63 B(8,7,11)       =    101.846420    -0.000023    -0.853972   100.992447
	   64 B(8,7,12)       =    120.038393    -0.000080    -0.007763   120.030630
	   65 B(8,9,10)       =    103.262128     0.000125     0.949009   104.211137
	   66 B(8,9,20)       =    111.004091    -0.000025    -0.170518   110.833573
	   67 B(8,9,21)       =    112.044810    -0.000058    -0.315808   111.729002
	   68 B(9,8,25)       =    114.067766     0.000083    -0.409404   113.658362
	   69 B(9,8,26)       =    109.211691    -0.000064     0.279756   109.491447
	   70 B(9,10,11)      =    108.200867    -0.000030    -0.401935   107.798932
	   71 B(9,10,22)      =    113.411347     0.000045     0.018317   113.429664
	   72 B(9,10,23)      =    110.484149    -0.000021     0.237435   110.721584
	   73 B(10,9,20)      =    110.561882     0.000017    -0.101233   110.460648
	   74 B(10,9,21)      =    112.636710    -0.000089    -0.273506   112.363204
	   75 B(10,11,12)     =    117.659207    -0.000086    -0.689185   116.970021
	   76 B(10,11,24)     =    117.728318     0.000020    -0.191265   117.537053
	   77 B(10,11,27)     =    110.855687     0.000031     0.549637   111.405324
	   78 B(11,7,12)      =     68.832812    -0.000278    -2.202930    66.629882
	   79 B(11,10,22)     =    108.288148    -0.000020    -0.084980   108.203168
	   80 B(11,10,23)     =    109.115211     0.000029     0.138125   109.253336
	   81 B(11,12,18)     =    107.126450    -0.000099    -0.220456   106.905994
	   82 B(11,12,19)     =    103.370618    -0.000103     0.075034   103.445652
	   83 B(12,11,24)     =    115.854175    -0.000001     0.082004   115.936180
	   84 B(12,11,27)     =     83.100995     0.000080     0.538578    83.639573
	   85 B(18,12,19)     =    117.451527     0.000065     0.102793   117.554320
	   86 B(20,9,21)      =    107.374878     0.000030    -0.080408   107.294469
	   87 B(22,10,23)     =    107.256279    -0.000003     0.097997   107.354276
	   88 B(24,11,27)     =    104.797034    -0.000003     0.251064   105.048098
	   89 B(25,8,26)      =    108.378825     0.000001    -0.001900   108.376925
	   90 D(1,2,3,4)      =      1.417115     0.000001     0.222631     1.639745
	   91 D(1,2,3,17)     =   -179.798690     0.000001     0.216695  -179.581995
	   92 D(1,2,7,8)      =    121.493583     0.000019     5.593123   127.086705
	   93 D(1,2,7,11)     =   -119.624770     0.000037     4.828463  -114.796307
	   94 D(1,2,7,12)     =    -41.816349    -0.000023     2.296746   -39.519604
	   95 D(1,6,5,4)      =      0.441141     0.000001     0.134122     0.575263
	   96 D(1,6,5,13)     =   -179.669108     0.000000     0.039459  -179.629648
	   97 D(2,1,6,5)      =     -0.302862    -0.000001    -0.114752    -0.417614
	   98 D(2,1,6,15)     =    179.382511    -0.000001    -0.155816   179.226695
	   99 D(2,3,4,5)      =     -1.293664    -0.000001    -0.204493    -1.498156
	  100 D(2,3,4,16)     =    179.118304    -0.000001    -0.106553   179.011750
	  101 D(2,7,8,9)      =     98.796576     0.000021     0.710620    99.507196
	  102 D(2,7,8,25)     =    -25.132091     0.000009     1.104050   -24.028042
	  103 D(2,7,8,26)     =   -143.221539     0.000006     1.231135  -141.990403
	  104 D(2,7,11,10)    =   -127.544421    -0.000010    -1.144458  -128.688879
	  105 D(2,7,11,12)    =    114.045430    -0.000000    -0.325437   113.719993
	  106 D(2,7,11,24)    =     -8.061000    -0.000009    -1.592522    -9.653522
	  107 D(2,7,11,27)    =    105.001615    -0.000010    -1.978100   103.023515
	  108 D(2,7,12,11)    =   -105.224738     0.000013     1.116519  -104.108219
	  109 D(2,7,12,18)    =     -9.024363     0.000030     2.351375    -6.672989
	  110 D(2,7,12,19)    =    163.147951    -0.000002    -0.443907   162.704044
	  111 D(3,2,1,6)      =     -0.615729    -0.000000    -0.062226    -0.677955
	  112 D(3,2,1,14)     =    177.743967    -0.000001    -0.234039   177.509929
	  113 D(3,2,7,8)      =    -53.850100     0.000020     5.737547   -48.112553
	  114 D(3,2,7,11)     =     65.031547     0.000037     4.972887    70.004435
	  115 D(3,2,7,12)     =    142.839968    -0.000023     2.441170   145.281138
	  116 D(3,4,5,6)      =      0.353642     0.000000     0.025595     0.379236
	  117 D(3,4,5,13)     =   -179.543549     0.000001     0.113755  -179.429794
	  118 D(4,3,2,7)      =    176.764431     0.000001     0.081571   176.846001
	  119 D(4,5,6,15)     =   -179.242119     0.000001     0.175514  -179.066605
	  120 D(4,5,13,28)    =    179.564071    -0.000000    -0.000996   179.563075
	  121 D(5,4,3,17)     =    179.894440    -0.000001    -0.199416   179.695024
	  122 D(5,6,1,14)     =   -178.691460     0.000000     0.050729  -178.640731
	  123 D(6,1,2,7)      =   -176.114823     0.000000     0.088156  -176.026667
	  124 D(6,5,4,16)     =    179.951135    -0.000000    -0.070152   179.880983
	  125 D(6,5,13,28)    =     -0.328593     0.000000     0.090969    -0.237624
	  126 D(7,2,1,14)     =      2.244873    -0.000001    -0.083656     2.161216
	  127 D(7,2,3,17)     =     -4.451375     0.000001     0.075635    -4.375739
	  128 D(7,8,9,10)     =     42.650094     0.000020     0.064130    42.714224
	  129 D(7,8,9,20)     =    -75.840728     0.000003    -0.273860   -76.114589
	  130 D(7,8,9,21)     =    164.120836     0.000007     0.156407   164.277243
	  131 D(7,11,10,9)    =     25.072051    -0.000009     0.736068    25.808119
	  132 D(7,11,10,22)   =    148.382186    -0.000003     0.463317   148.845502
	  133 D(7,11,10,23)   =    -95.181746    -0.000003     0.607718   -94.574028
	  134 D(7,11,12,18)   =   -117.073712    -0.000001     0.043719  -117.029993
	  135 D(7,11,12,19)   =    118.240765     0.000006    -0.005184   118.235581
	  136 D(7,12,11,10)   =    -77.218081     0.000009    -0.437819   -77.655901
	  137 D(7,12,11,24)   =     69.681130    -0.000015    -1.816867    67.864263
	  138 D(7,12,11,27)   =    172.815732    -0.000007    -1.284218   171.531513
	  139 D(8,7,11,10)    =      0.553673     0.000011    -1.090541    -0.536868
	  140 D(8,7,11,12)    =   -117.856476     0.000020    -0.271520  -118.127996
	  141 D(8,7,11,24)    =    120.037094     0.000011    -1.538605   118.498489
	  142 D(8,7,11,27)    =   -126.900290     0.000010    -1.924183  -128.824473
	  143 D(8,7,12,11)    =     91.741552    -0.000036    -2.306682    89.434870
	  144 D(8,7,12,18)    =   -172.058074    -0.000018    -1.071826  -173.129900
	  145 D(8,7,12,19)    =      0.114240    -0.000051    -3.867107    -3.752867
	  146 D(8,9,10,11)    =    -42.693414    -0.000011    -0.601508   -43.294922
	  147 D(8,9,10,22)    =   -162.846879    -0.000007    -0.229926  -163.076805
	  148 D(8,9,10,23)    =     76.700645    -0.000010    -0.541486    76.159159
	  149 D(9,8,7,11)     =    -25.756139    -0.000006     1.059396   -24.696742
	  150 D(9,8,7,12)     =    -98.004007     0.000071     4.067258   -93.936749
	  151 D(9,10,11,12)   =     69.803033    -0.000022     0.556205    70.359238
	  152 D(9,10,11,24)   =    -76.471826     0.000004     1.870581   -74.601246
	  153 D(9,10,11,27)   =    162.929811    -0.000004     1.211797   164.141608
	  154 D(10,9,8,25)    =    163.469791     0.000015    -0.187707   163.282084
	  155 D(10,9,8,26)    =    -75.109016     0.000018    -0.264159   -75.373174
	  156 D(10,11,7,12)   =    118.410149    -0.000009    -0.819021   117.591128
	  157 D(10,11,12,18)  =    165.708207     0.000009    -0.394101   165.314106
	  158 D(10,11,12,19)  =     41.022683     0.000016    -0.443003    40.579681
	  159 D(11,7,8,25)    =   -149.684806    -0.000019     1.452826  -148.231980
	  160 D(11,7,8,26)    =     92.225747    -0.000021     1.579912    93.805658
	  161 D(11,7,12,18)   =     96.200374     0.000018     1.234856    97.435230
	  162 D(11,7,12,19)   =    -91.627312    -0.000015    -1.560426   -93.187737
	  163 D(11,10,9,20)   =     76.104663    -0.000000    -0.316799    75.787864
	  164 D(11,10,9,21)   =   -163.763617    -0.000003    -0.672781  -164.436398
	  165 D(12,7,8,25)    =    138.067326     0.000058     4.460688   142.528014
	  166 D(12,7,8,26)    =     19.977879     0.000056     4.587773    24.565652
	  167 D(12,7,11,24)   =   -122.106430    -0.000009    -1.267085  -123.373515
	  168 D(12,7,11,27)   =     -9.043815    -0.000010    -1.652663   -10.696478
	  169 D(12,11,10,22)  =   -166.886832    -0.000017     0.283454  -166.603378
	  170 D(12,11,10,23)  =    -50.450763    -0.000016     0.427854   -50.022909
	  171 D(13,5,4,16)    =      0.053945     0.000000     0.018009     0.071953
	  172 D(13,5,6,15)    =      0.647633     0.000001     0.080851     0.728484
	  173 D(14,1,6,15)    =      0.993914     0.000000     0.009665     1.003578
	  174 D(16,4,3,17)    =      0.306408    -0.000001    -0.101477     0.204931
	  175 D(18,12,11,24)  =    -47.392582    -0.000015    -1.773149   -49.165730
	  176 D(18,12,11,27)  =     55.742020    -0.000007    -1.240500    54.501520
	  177 D(19,12,11,24)  =   -172.078105    -0.000008    -1.822051  -173.900156
	  178 D(19,12,11,27)  =    -68.943504    -0.000000    -1.289402   -70.232906
	  179 D(20,9,8,25)    =     44.978968    -0.000003    -0.525697    44.453272
	  180 D(20,9,8,26)    =    166.400162    -0.000000    -0.602149   165.798013
	  181 D(20,9,10,22)   =    -44.048803     0.000004     0.054783   -43.994019
	  182 D(20,9,10,23)   =   -164.501278     0.000001    -0.256777  -164.758055
	  183 D(21,9,8,25)    =    -75.059467     0.000002    -0.095429   -75.154896
	  184 D(21,9,8,26)    =     46.361727     0.000004    -0.171882    46.189845
	  185 D(21,9,10,22)   =     76.082918     0.000001    -0.301199    75.781719
	  186 D(21,9,10,23)   =    -44.369558    -0.000001    -0.612759   -44.982316
	  187 D(22,10,11,24)  =     46.838308     0.000010     1.597829    48.436138
	  188 D(22,10,11,27)  =    -73.760054     0.000001     0.939046   -72.821009
	  189 D(23,10,11,24)  =    163.274377     0.000010     1.742230   165.016607
	  190 D(23,10,11,27)  =     42.676014     0.000001     1.083447    43.759461
	  191 R(3,9)          =      3.556248    -0.000690     0.011564     3.567812
	 ---------------------------------------------------------------------------
	Successfully symmetrized geometry.

  ==> Convergence Check <==

  Measures of convergence in internal coordinates in au.
  Criteria marked as inactive (o), active & met (*), and active & unmet ( ).
  --------------------------------------------------------------------------------------------- ~
   Step     Total Energy     Delta E     MAX Force     RMS Force      MAX Disp      RMS Disp    ~
  --------------------------------------------------------------------------------------------- ~
    Convergence Criteria    1.00e-06 *    3.00e-04 *             o    1.20e-03 *             o  ~
  --------------------------------------------------------------------------------------------- ~
      1    -539.68783922   -5.40e+02      1.30e-02      1.53e-03 o    1.00e-01      2.28e-02 o  ~
  ---------------------------------------------------------------------------------------------

	Writing optimization data to binary file.
	Structure for next step:
	Cartesian Geometry (in Angstrom)
	    C     1.4092344768  -0.9273019894   0.4690557864
	    C     0.3346751940  -0.1058565569   0.0729142933
	    C    -0.5572557952  -0.5786106929  -0.9200251217
	    C    -0.3963321524  -1.8474510352  -1.4714561805
	    C     0.6831770381  -2.6671477749  -1.0655922902
	    C     1.5885490965  -2.1971134463  -0.0963300356
	    C     0.2321378724   1.2763235923   0.6356390673
	    C     0.0927360722   2.4620093660  -0.3287620423
	    C    -1.4025163766   2.8452851368  -0.3798819240
	    C    -1.8586619509   2.7793460577   1.0841257021
	    C    -1.2604123426   1.5132370807   1.7043000376
	    C     0.5439077999   1.5016471862   1.9853046443
	    O     0.7793458447  -3.8785022617  -1.6534527758
	    H     2.1398165305  -0.5730597532   1.2056316841
	    H     2.4379571060  -2.8160838383   0.2158223584
	    H    -1.0902157808  -2.2267008324  -2.2273927648
	    H    -1.3997962273   0.0353546533  -1.2576179421
	    H     0.7559702198   0.6643639229   2.6579482041
	    H     0.7508447603   2.5123611755   2.3534642464
	    H    -1.9713696243   2.1259340154  -0.9940118049
	    H    -1.5527796170   3.8429952379  -0.8210068941
	    H    -2.9553069477   2.7352451536   1.2005387590
	    H    -1.5030649081   3.6624819016   1.6444841779
	    H    -1.7090410059   0.5510890463   1.4258421862
	    H     0.5093569482   2.1765802971  -1.3070851863
	    H     0.6780670398   3.3125435560   0.0643248652
	    H    -1.3083350191   1.5434768053   2.8111284467
	    H     1.5534890902  -4.3455181244  -1.3058416538
			--------------------------
			 OPTKING Finished Execution 
			--------------------------

    Structure for next step:
    Molecular point group: c1
    Full point group: C1

    Geometry (in Angstrom), charge = 1, multiplicity = 1:

    C            1.405376781335    -0.926847727542     0.471709888852
    C            0.330817494315    -0.105402291767     0.075568394169
    C           -0.561113498374    -0.578156429645    -0.917371024692
    C           -0.400189855000    -1.846996776959    -1.468802085685
    C            0.679319339712    -2.666693519871    -1.062938193822
    C            1.584691401742    -2.196659189408    -0.093675935375
    C            0.228280172273     1.276777862869     0.638293170423
    C            0.088878371545     2.462463641184    -0.326107942962
    C           -1.406374083141     2.845739413497    -0.377227824905
    C           -1.862519659187     2.779800334188     1.086779806952
    C           -1.264270048587     1.513691352178     1.706954144856
    C            0.540050100961     1.502101457636     1.987958752719
    O            0.775488146780    -3.878048011404    -1.650798681713
    H            2.135958837836    -0.572605489914     1.208285789413
    H            2.434099414519    -2.815629583876     0.218476459825
    H           -1.094073486090    -2.226246575591    -2.224738672944
    H           -1.403653933810     0.035808918969    -1.254963846485
    H            0.752112521744     0.664818191091     2.660602315130
    H            0.746987062210     2.512815450899     2.356118356282
    H           -1.975227333031     2.126388289344    -0.991357708247
    H           -1.556637324144     3.843449518563    -0.818352796707
    H           -2.959164660372     2.735699429873     1.203192864361
    H           -1.506922615042     3.662936181500     1.647138284943
    H           -1.712898713639     0.551543313986     1.428496292399
    H            0.505499249137     2.177034571178    -1.304431090868
    H            0.674209341432     3.312997834546     0.066978966051
    H           -1.312192725238     1.543931076882     2.813782558335
    H            1.549631395313    -4.345063875938    -1.303187558325


Scratch directory: /scratch1/maxbuskirk/
gradient() will perform analytic gradient computation.

*** tstart() called on skylm003.palmetto.clemson.edu
*** at Thu Feb 17 23:00:35 2022

   => Loading Basis Set <=

    Name: CC-PVDZ
    Role: ORBITAL
    Keyword: BASIS
    atoms 1-12  entry C          line   138 file /home/maxbuskirk/.conda/envs/psifour/share/psi4/basis/cc-pvdz.gbs 
    atoms 13    entry O          line   198 file /home/maxbuskirk/.conda/envs/psifour/share/psi4/basis/cc-pvdz.gbs 
    atoms 14-28 entry H          line    22 file /home/maxbuskirk/.conda/envs/psifour/share/psi4/basis/cc-pvdz.gbs 


         ---------------------------------------------------------
                                   SCF
               by Justin Turney, Rob Parrish, Andy Simmonett
                          and Daniel G. A. Smith
                              RHF Reference
                        1 Threads,  59127 MiB Core
         ---------------------------------------------------------

  ==> Geometry <==

    Molecular point group: c1
    Full point group: C1

    Geometry (in Angstrom), charge = 1, multiplicity = 1:

       Center              X                  Y                   Z               Mass       
    ------------   -----------------  -----------------  -----------------  -----------------
         C            1.405376781335    -0.926847727542     0.471709888852    12.000000000000
         C            0.330817494315    -0.105402291767     0.075568394169    12.000000000000
         C           -0.561113498374    -0.578156429645    -0.917371024692    12.000000000000
         C           -0.400189855000    -1.846996776959    -1.468802085685    12.000000000000
         C            0.679319339712    -2.666693519871    -1.062938193822    12.000000000000
         C            1.584691401742    -2.196659189408    -0.093675935375    12.000000000000
         C            0.228280172273     1.276777862869     0.638293170423    12.000000000000
         C            0.088878371545     2.462463641184    -0.326107942962    12.000000000000
         C           -1.406374083141     2.845739413497    -0.377227824905    12.000000000000
         C           -1.862519659187     2.779800334188     1.086779806952    12.000000000000
         C           -1.264270048587     1.513691352178     1.706954144856    12.000000000000
         C            0.540050100961     1.502101457636     1.987958752719    12.000000000000
         O            0.775488146780    -3.878048011404    -1.650798681713    15.994914619570
         H            2.135958837836    -0.572605489914     1.208285789413     1.007825032230
         H            2.434099414519    -2.815629583876     0.218476459825     1.007825032230
         H           -1.094073486090    -2.226246575591    -2.224738672944     1.007825032230
         H           -1.403653933810     0.035808918969    -1.254963846485     1.007825032230
         H            0.752112521744     0.664818191091     2.660602315130     1.007825032230
         H            0.746987062210     2.512815450899     2.356118356282     1.007825032230
         H           -1.975227333031     2.126388289344    -0.991357708247     1.007825032230
         H           -1.556637324144     3.843449518563    -0.818352796707     1.007825032230
         H           -2.959164660372     2.735699429873     1.203192864361     1.007825032230
         H           -1.506922615042     3.662936181500     1.647138284943     1.007825032230
         H           -1.712898713639     0.551543313986     1.428496292399     1.007825032230
         H            0.505499249137     2.177034571178    -1.304431090868     1.007825032230
         H            0.674209341432     3.312997834546     0.066978966051     1.007825032230
         H           -1.312192725238     1.543931076882     2.813782558335     1.007825032230
         H            1.549631395313    -4.345063875938    -1.303187558325     1.007825032230

  Running in c1 symmetry.

  Rotational constants: A =      0.06616  B =      0.01484  C =      0.01350 [cm^-1]
  Rotational constants: A =   1983.31717  B =    444.82770  C =    404.77970 [MHz]
  Nuclear repulsion =  774.061131934342711

  Charge       = 1
  Multiplicity = 1
  Electrons    = 94
  Nalpha       = 47
  Nbeta        = 47

  ==> Algorithm <==

  SCF Algorithm Type is DF.
  DIIS enabled.
  MOM disabled.
  Fractional occupation disabled.
  Guess Type is READ.
  Energy threshold   = 1.00e-10
  Density threshold  = 1.00e-10
  Integral threshold = 1.00e-12

  ==> Primary Basis <==

  Basis Set: CC-PVDZ
    Blend: CC-PVDZ
    Number of shells: 123
    Number of basis functions: 257
    Number of Cartesian functions: 270
    Spherical Harmonics?: true
    Max angular momentum: 2

   => Loading Basis Set <=

    Name: (CC-PVDZ AUX)
    Role: JKFIT
    Keyword: DF_BASIS_SCF
    atoms 1-12  entry C          line   121 file /home/maxbuskirk/.conda/envs/psifour/share/psi4/basis/cc-pvdz-jkfit.gbs 
[...]

   @DF-RHF iter   0:  -537.70014828750436   -5.37700e+02   1.30016e-03 
   @DF-RHF iter   1:  -537.76085332329876   -6.07050e-02   2.32416e-04 DIIS
   @DF-RHF iter   2:  -537.76435315326648   -3.49983e-03   9.76886e-05 DIIS
   @DF-RHF iter   3:  -537.76494724823488   -5.94095e-04   4.77986e-05 DIIS
   @DF-RHF iter   4:  -537.76511645717255   -1.69209e-04   1.31612e-05 DIIS
   @DF-RHF iter   5:  -537.76512774750790   -1.12903e-05   5.35005e-06 DIIS
   @DF-RHF iter   6:  -537.76513001398257   -2.26647e-06   1.56535e-06 DIIS
   @DF-RHF iter   7:  -537.76513022042684   -2.06444e-07   5.50638e-07 DIIS
   @DF-RHF iter   8:  -537.76513025018210   -2.97553e-08   2.31470e-07 DIIS
   @DF-RHF iter   9:  -537.76513025864892   -8.46683e-09   1.04072e-07 DIIS
   @DF-RHF iter  10:  -537.76513026031216   -1.66324e-09   4.67216e-08 DIIS
   @DF-RHF iter  11:  -537.76513026075293   -4.40764e-10   1.59964e-08 DIIS
   @DF-RHF iter  12:  -537.76513026080352   -5.05906e-11   6.83062e-09 DIIS
   @DF-RHF iter  13:  -537.76513026081045   -6.93490e-12   2.66112e-09 DIIS
   @DF-RHF iter  14:  -537.76513026081045    0.00000e+00   8.66170e-10 DIIS
   @DF-RHF iter  15:  -537.76513026081045    0.00000e+00   3.21662e-10 DIIS
   @DF-RHF iter  16:  -537.76513026080875    1.70530e-12   1.55287e-10 DIIS
   @DF-RHF iter  17:  -537.76513026080943   -6.82121e-13   6.35628e-11 DIIS
  Energy and wave function converged.


  ==> Post-Iterations <==

    Orbital Energies [Eh]
    ---------------------

    Doubly Occupied:                                                      

       1A    -20.706142     2A    -11.492211     3A    -11.483138  
       4A    -11.462219     5A    -11.439323     6A    -11.404974  
       7A    -11.401348     8A    -11.394690     9A    -11.392739  
      10A    -11.391851    11A    -11.386195    12A    -11.370935  
      13A    -11.365721    14A     -1.524437    15A     -1.360534  
      16A     -1.278111    17A     -1.216152    18A     -1.173665  
      19A     -1.153016    20A     -1.134237    21A     -1.035449  
      22A     -0.998753    23A     -0.975530    24A     -0.959347  
      25A     -0.922277    26A     -0.860146    27A     -0.854277  
      28A     -0.818033    29A     -0.802072    30A     -0.790401  
      31A     -0.779619    32A     -0.757047    33A     -0.741380  
      34A     -0.723011    35A     -0.710247    36A     -0.703710  
      37A     -0.690946    38A     -0.688624    39A     -0.660234  
      40A     -0.647385    41A     -0.643123    42A     -0.633499  
      43A     -0.625334    44A     -0.612385    45A     -0.606977  
      46A     -0.474048    47A     -0.442203  

    Virtual:                                                              

      48A     -0.052119    49A     -0.006126    50A      0.000420  
      51A      0.015909    52A      0.034387    53A      0.048459  
      54A      0.057914    55A      0.074134    56A      0.075628  
      57A      0.090583    58A      0.093386    59A      0.108277  
      60A      0.112397    61A      0.128491    62A      0.137549  
      63A      0.147624    64A      0.157880    65A      0.162030  
      66A      0.190357    67A      0.192957    68A      0.231149  
      69A      0.232889    70A      0.234279    71A      0.271258  
      72A      0.279284    73A      0.298201    74A      0.304563  
      75A      0.334134    76A      0.345048    77A      0.358809  
      78A      0.376352    79A      0.418693    80A      0.456649  
      81A      0.460596    82A      0.473648    83A      0.490494  
      84A      0.494491    85A      0.507295    86A      0.518304  
      87A      0.542834    88A      0.553283    89A      0.558050  
      90A      0.566247    91A      0.575375    92A      0.590373  
      93A      0.592619    94A      0.601277    95A      0.624012  
      96A      0.631081    97A      0.634346    98A      0.645364  
      99A      0.655315   100A      0.661935   101A      0.677439  
     102A      0.689225   103A      0.694746   104A      0.698899  
     105A      0.702990   106A      0.715532   107A      0.719943  
     108A      0.724594   109A      0.731731   110A      0.735945  
     111A      0.749009   112A      0.749589   113A      0.757373  
     114A      0.760050   115A      0.773338   116A      0.779229  
     117A      0.791247   118A      0.795416   119A      0.800264  
     120A      0.810694   121A      0.826105   122A      0.849708  
     123A      0.855917   124A      0.883663   125A      0.929949  
     126A      0.959198   127A      0.966868   128A      0.996832  
     129A      1.003897   130A      1.016841   131A      1.035472  
     132A      1.046966   133A      1.058781   134A      1.074683  
     135A      1.105617   136A      1.121108   137A      1.129535  
     138A      1.136363   139A      1.139090   140A      1.162647  
     141A      1.167769   142A      1.194902   143A      1.205986  
     144A      1.213614   145A      1.231230   146A      1.260684  
     147A      1.279120   148A      1.298301   149A      1.309281  
     150A      1.326877   151A      1.335312   152A      1.370261  
     153A      1.406565   154A      1.429366   155A      1.445772  
     156A      1.463880   157A      1.491513   158A      1.494512  
     159A      1.504993   160A      1.520103   161A      1.541745  
     162A      1.585201   163A      1.592691   164A      1.610500  
     165A      1.633072   166A      1.641297   167A      1.654586  
     168A      1.664585   169A      1.667312   170A      1.676902  
     171A      1.694661   172A      1.712737   173A      1.724333  
     174A      1.735144   175A      1.741204   176A      1.752317  
     177A      1.757674   178A      1.769764   179A      1.770810  
     180A      1.775415   181A      1.786399   182A      1.792822  
     183A      1.802523   184A      1.804381   185A      1.826279  
     186A      1.838550   187A      1.841190   188A      1.849110  
     189A      1.852216   190A      1.866344   191A      1.889343  
     192A      1.902087   193A      1.915734   194A      1.921939  
     195A      1.937404   196A      1.940038   197A      1.948593  
     198A      1.957888   199A      1.969625   200A      1.973516  
     201A      1.991943   202A      2.003214   203A      2.013369  
     204A      2.030676   205A      2.055122   206A      2.068511  
     207A      2.073763   208A      2.109397   209A      2.121808  
     210A      2.125052   211A      2.149976   212A      2.184217  
     213A      2.201100   214A      2.205998   215A      2.225606  
     216A      2.234023   217A      2.247696   218A      2.270479  
     219A      2.280307   220A      2.300931   221A      2.323870  
     222A      2.330940   223A      2.344184   224A      2.360729  
     225A      2.378034   226A      2.388816   227A      2.420188  
     228A      2.434346   229A      2.466081   230A      2.477230  
     231A      2.497108   232A      2.563118   233A      2.574385  
     234A      2.600710   235A      2.618693   236A      2.636530  
     237A      2.645789   238A      2.660436   239A      2.680836  
     240A      2.722889   241A      2.774653   242A      2.784453  
     243A      2.811758   244A      2.823265   245A      2.867994  
     246A      2.880462   247A      2.914657   248A      2.920378  
     249A      2.934094   250A      2.992038   251A      3.090342  
     252A      3.142141   253A      3.221660   254A      3.450804  
     255A      3.565204   256A      3.770902   257A      4.068698  

    Final Occupation by Irrep:
              A 
    DOCC [    47 ]

  @DF-RHF Final Energy:  -537.76513026080943

   => Energetics <=

    Nuclear Repulsion Energy =            776.7912681469822473
    One-Electron Energy =               -2255.7373977868496695
    Two-Electron Energy =                 941.1809993790579938
    Total Energy =                       -537.7651302608094284

Computation Completed


Properties will be evaluated at   0.000000,   0.000000,   0.000000 [a0]

Properties computed using the SCF density matrix

  Nuclear Dipole Moment: [e a0]
     X:    -3.3415      Y:    11.4950      Z:     7.0701

  Electronic Dipole Moment: [e a0]
     X:     3.7839      Y:    -9.6272      Z:    -4.9309

  Dipole Moment: [e a0]
     X:     0.4425      Y:     1.8678      Z:     2.1392     Total:     2.8741

  Dipole Moment: [D]
     X:     1.1246      Y:     4.7475      Z:     5.4373     Total:     7.3053


*** tstop() called on skylm003.palmetto.clemson.edu at Sat Feb 19 21:17:30 2022
Module time:
	user time   =      17.33 seconds =       0.29 minutes
	system time =       0.80 seconds =       0.01 minutes
	total time  =         19 seconds =       0.32 minutes
Total time:
	user time   =  124062.85 seconds =    2067.71 minutes
	system time =   24767.93 seconds =     412.80 minutes
	total time  =     194065 seconds =    3234.42 minutes
 MINTS: Wrapper to libmints.
   by Justin Turney

   Calculation information:
      Number of threads:                 1
      Number of atoms:                  28
      Number of AO shells:             123
      Number of SO shells:             123
      Number of primitives:            361
      Number of atomic orbitals:       270
      Number of basis functions:       257

      Number of irreps:                  1
      Integral cutoff                 1.00e-12
      Number of functions per irrep: [ 257 ]

 OEINTS: Overlap, kinetic, potential, dipole, and quadrupole integrals
         stored in file 35.

      Computing two-electron integrals...done
      Computed 355256966 non-zero two-electron integrals.
        Stored in file 33.


*** tstart() called on skylm003.palmetto.clemson.edu
*** at Sat Feb 19 21:22:34 2022


	Wfn Parameters:
	--------------------
	Wavefunction         = CCSD
	Number of irreps     = 1
	Number of MOs        = 257
	Number of active MOs = 257
	AO-Basis             = NONE
	Semicanonical        = false
	Reference            = RHF
	Print Level          = 1

	IRREP	# MOs	# FZDC	# DOCC	# SOCC	# VIRT	# FZVR
	-----	-----	------	------	------	------	------
	 A	   257	    0	    47	    0	    210	    0
	Transforming integrals...
	IWL integrals will be deleted.
	(OO|OO)...
	Presorting SO-basis two-electron integrals.
	Sorting File: SO Ints (nn|nn) nbuckets = 1
	Constructing frozen core operators
	Starting first half-transformation.
	Sorting half-transformed integrals.
	First half integral transformation complete.
	Starting second half-transformation.
	Two-electron integral transformation complete.
	(OO|OV)...
	Starting second half-transformation.
	Two-electron integral transformation complete.
	(OO|VV)...
	Starting second half-transformation.
	Two-electron integral transformation complete.
	(OV|OO)...
	Starting first half-transformation.
	Sorting half-transformed integrals.
	First half integral transformation complete.
	Starting second half-transformation.
	Two-electron integral transformation complete.
	(OV|OV)...
	Starting second half-transformation.
	Two-electron integral transformation complete.
	(OV|VV)...
	Starting second half-transformation.
	Two-electron integral transformation complete.
	(VV|OO)...
	Starting first half-transformation.
	Sorting half-transformed integrals.
	First half integral transformation complete.
	Starting second half-transformation.
	Two-electron integral transformation complete.
	(VV|OV)...
	Starting second half-transformation.
	Two-electron integral transformation complete.
	(VV|VV)...
	Starting second half-transformation.
	Two-electron integral transformation complete.
	Frozen core energy     =      0.00000000000000

	Size of irrep 0 of <ab|cd> integrals:   1944.810 (MW) /  15558.480 (MB)
	Total:                                  1944.810 (MW) /  15558.480 (MB)

	Size of irrep 0 of <ia|bc> integrals:    435.267 (MW) /   3482.136 (MB)
	Total:                                   435.267 (MW) /   3482.136 (MB)

	Size of irrep 0 of tijab amplitudes:      97.417 (MW) /    779.335 (MB)
	Total:                                    97.417 (MW) /    779.335 (MB)

	Nuclear Rep. energy          =    776.79126814698225
	SCF energy                   =   -537.76513026080943
	One-electron energy          =  -2255.73739773115904
	Two-electron energy          =    941.18027482850164
	Reference energy             =   -537.76585475567504

*** tstop() called on skylm003.palmetto.clemson.edu at Sat Feb 19 21:33:57 2022
Module time:
	user time   =     281.17 seconds =       4.69 minutes
	system time =     143.44 seconds =       2.39 minutes
	total time  =        683 seconds =      11.38 minutes
Total time:
	user time   =  124546.62 seconds =    2075.78 minutes
	system time =   24920.63 seconds =     415.34 minutes
	total time  =     195052 seconds =    3250.87 minutes
            **************************
            *                        *
            *        CCENERGY        *
            *                        *
            **************************

    Nuclear Rep. energy (wfn)     =  776.791268146982247
    SCF energy          (wfn)     = -537.765130260809428
    Reference energy    (file100) = -537.765854755675036

    Input parameters:
    -----------------
    Wave function   =     CCSD
    Reference wfn   =     RHF
    Brueckner       =     No
    Memory (Mbytes) =     62000.0
    Maxiter         =     50
    R_Convergence   =     1.0e-07
    E_Convergence   =     1.0e-08
    Restart         =     Yes
    DIIS            =     Yes
    AO Basis        =     NONE
    ABCD            =     NEW
    Cache Level     =     2
    Cache Type      =     LOW
    Print Level     =     1
    Num. of threads =     1
    # Amps to Print =     10
    Print MP2 Amps? =     No
    Analyze T2 Amps =     No
    Print Pair Ener =     No
    Local CC        =     No
    SCS-MP2         =     False
    SCSN-MP2        =     False
    SCS-CCSD        =     False

    Using old T1 amplitudes.
    Using old T2 amplitudes.

MP2 correlation energy -1.8299266230355040
                Solving CC Amplitude Equations
                ------------------------------
  Iter             Energy              RMS        T1Diag      D1Diag    New D1Diag    D2Diag
  ----     ---------------------    ---------   ----------  ----------  ----------   --------
     0        -0.610068607782758    0.000e+00    0.009551    0.041861    0.041861    0.185946
     1        -1.875379199615530    8.025e-01    0.006454    0.026847    0.026847    0.191193
     2        -1.874326448155076    1.612e-01    0.008422    0.035021    0.035021    0.173352
     3        -1.909744162541078    5.106e-02    0.008414    0.034532    0.034532    0.181409
     4        -1.915224854976308    2.044e-02    0.008928    0.037681    0.037681    0.183527
     5        -1.916116041549960    8.489e-03    0.009262    0.039635    0.039635    0.184791
     6        -1.916582290885139    4.171e-03    0.009400    0.040593    0.040593    0.185645
     7        -1.916779375276792    1.759e-03    0.009470    0.041145    0.041145    0.186015
     8        -1.916742073912151    7.403e-04    0.009498    0.041360    0.041360    0.186086
     9        -1.916703988801884    3.863e-04    0.009504    0.041401    0.041401    0.186075
    10        -1.916701997160503    1.732e-04    0.009506    0.041404    0.041404    0.186052
    11        -1.916701041870621    9.106e-05    0.009507    0.041399    0.041399    0.186036
    12        -1.916698884361645    3.334e-05    0.009506    0.041387    0.041387    0.186029
    13        -1.916699474458276    1.530e-05    0.009506    0.041385    0.041385    0.186029
    14        -1.916698945742477    6.467e-06    0.009505    0.041383    0.041383    0.186029
    15        -1.916698744436147    3.028e-06    0.009505    0.041382    0.041382    0.186029
    16        -1.916698666851733    1.433e-06    0.009505    0.041382    0.041382    0.186029
    17        -1.916698624548123    6.951e-07    0.009505    0.041382    0.041382    0.186029
    18        -1.916698604068522    3.336e-07    0.009505    0.041382    0.041382    0.186029
    19        -1.916698604263786    1.702e-07    0.009505    0.041382    0.041382    0.186029
    20        -1.916698604563321    7.752e-08    0.009505    0.041382    0.041382    0.186029

    Iterations converged.


    Largest TIA Amplitudes:
             35   2         0.0202246586
             44   2         0.0141093882
             45  46        -0.0135989365
             35   3        -0.0135528562
             45   1        -0.0130806196
             35  21         0.0120956341
             44   3        -0.0119798686
             43   2        -0.0115603749
             40   4         0.0111589939
             28   0        -0.0106966047

    Largest TIjAb Amplitudes:
     45  45   1   1        -0.0684142853
     46  46   2   2        -0.0428185071
     46  46   1   1        -0.0401212561
     45  45   2   2        -0.0284140783
     46  46   2   3         0.0270979162
     46  46   3   2         0.0270979162
     45  46   2   1         0.0262839297
     46  45   1   2         0.0262839297
     43  43   0   0        -0.0219293476
     46  46   3   3        -0.0193360705

    SCF energy       (wfn)                    = -537.765130260809428
    Reference energy (file100)                = -537.765854755675036

    Opposite-spin MP2 correlation energy      =   -1.352994562834040
    Same-spin MP2 correlation energy          =   -0.476932060201464
    Singles MP2 correlation energy            =   -0.000000000000000
    MP2 correlation energy                    =   -1.829926623035504
      * MP2 total energy                      = -539.595781378710512

    Opposite-spin CCSD correlation energy     =   -1.487628087685616
    Same-spin CCSD correlation energy         =   -0.429070516877705
    Singles CCSD correlation energy           =    0.000000000000000
    CCSD correlation energy                   =   -1.916698604563321
      * CCSD total energy                     = -539.682553360238330


			**************************
			*                        *
			*         CCHBAR         *
			*                        *
			**************************


			**************************
			*        CCLAMBDA        *
			**************************


	Nuclear Rep. energy (wfn)     =  776.791268146982247
	Reference           (wfn)     =                    0
	SCF energy          (wfn)     = -537.765130260809428
	Reference energy    (CC_INFO) = -537.765854755675036
	CCSD energy         (CC_INFO) =   -1.916698604563321
	Total CCSD energy   (CC_INFO) = -539.682553360238330

	Input parameters:
	-----------------
	Maxiter           =     50
	Convergence       = 1.0e-07
	Restart           =     No
	Cache Level       =     2
	Model III         =     No
	DIIS              =     Yes
	AO Basis          =     No
	ABCD              =     NEW
	Local CC          =     No
	Parameters for left-handed eigenvectors:
	    Irr   Root  Ground-State?    EOM energy        R0
	  1   0     0        Yes       0.0000000000   1.0000000000
	Labels for eigenvector 1:
	LIA 0 -1, Lia 0 -1, LIJAB 0 -1, Lijab 0 -1, LIjAb 0 -1, 2LIjAb - LIjbA 0 -1
	Symmetry of left-hand state: A
	Symmetry of left-hand eigenvector: A

	          Solving Lambda Equations
	          ------------------------
	Iter     PseudoEnergy or Norm         RMS  
	----     ---------------------     --------
	   0        -1.916843942108109    7.957e-08
	   1        -1.861161810443672    3.660e-02
	   2        -1.856004154719388    7.747e-03
	   3        -1.854653381315330    4.084e-03
	   4        -1.854264592870885    1.537e-03
	   5        -1.854364938691510    8.243e-04
	   6        -1.854384846909533    2.978e-04
	   7        -1.854373190404256    1.391e-04
	   8        -1.854375646504288    6.215e-05
	   9        -1.854377449161116    2.962e-05
	  10        -1.854376904142450    1.297e-05
	  11        -1.854377204426382    6.840e-06
	  12        -1.854377061989049    3.243e-06
	  13        -1.854376920385881    1.595e-06
	  14        -1.854376920970397    8.346e-07
	  15        -1.854376909544679    3.555e-07
