
    -----------------------------------------------------------------------
          Psi4: An Open-Source Ab Initio Electronic Structure Package
                               Psi4 1.4 release

                         Git: Rev {HEAD} 9485035 


    D. G. A. Smith, L. A. Burns, A. C. Simmonett, R. M. Parrish,
    M. C. Schieber, R. Galvelis, P. Kraus, H. Kruse, R. Di Remigio,
    A. Alenaizan, A. M. James, S. Lehtola, J. P. Misiewicz, M. Scheurer,
    R. A. Shaw, J. B. Schriber, Y. Xie, Z. L. Glick, D. A. Sirianni,
    J. S. O'Brien, J. M. Waldrop, A. Kumar, E. G. Hohenstein,
    B. P. Pritchard, B. R. Brooks, H. F. Schaefer III, A. Yu. Sokolov,
    K. Patkowski, A. E. DePrince III, U. Bozkaya, R. A. King,
    F. A. Evangelista, J. M. Turney, T. D. Crawford, C. D. Sherrill,
    J. Chem. Phys. 152(18) 184108 (2020). https://doi.org/10.1063/5.0006002

                            Additional Code Authors
    E. T. Seidl, C. L. Janssen, E. F. Valeev, M. L. Leininger,
    J. F. Gonthier, R. M. Richard, H. R. McAlexander, M. Saitow, X. Wang,
    P. Verma, and M. H. Lechner

             Previous Authors, Complete List of Code Contributors,
                       and Citations for Specific Modules
    https://github.com/psi4/psi4/blob/master/codemeta.json
    https://github.com/psi4/psi4/graphs/contributors
    http://psicode.org/psi4manual/master/introduction.html#citing-psifour

    -----------------------------------------------------------------------


    Psi4 started on: Thursday, 17 February 2022 03:20PM

    Process ID: 3698877
    Host:       skylm002.palmetto.clemson.edu
    PSIDATADIR: /home/maxbuskirk/.conda/envs/psifour/share/psi4
    Memory:     500.0 MiB
    Threads:    1
    
  ==> Input File <==

--------------------------------------------------------------------------
memory 62 GB

molecule mol {
1 1
    C            1.573361342824     1.347527853419     0.461319791787
    C            0.644297681607     0.632848723823    -0.516444262648
    C           -0.661336171703     0.087739750614    -0.031296307370
    C           -0.740397208995    -0.846830633306     1.023579718875
    C           -1.993364246080    -1.266738197617     1.488141541240
    C           -3.169778005276    -0.733804401321     0.930644252041
    C           -3.093938961338     0.213986241445    -0.100416978424
    C           -1.841186713686     0.621100060176    -0.587864561850
    H           -1.790168352070     1.371888293213    -1.383537853936
    H           -4.005232817851     0.639184741684    -0.530378388726
    H           -4.145707731562    -1.057143085943     1.304839361458
    H           -2.050050838909    -2.005346123177     2.292856835277
    H            0.163859145102    -1.264889635817     1.476458197828
    C            0.921982254941     0.675236950833    -1.890252872078
    H            0.212043407796     0.255304892461    -2.609255315708
    H            1.733307817810     1.298869041166    -2.279474310015
    C            1.828133183786    -0.730719690249    -1.165301104494
    C            3.089529567727    -0.340448109698    -0.393809606215
    C            2.648135619585     0.332446011918     0.910777748218
    H            2.210814814267    -0.416387622671     1.594134680545
    H            3.474196278910     0.826424610807     1.445775094045
    H            3.688590019938    -1.252494862738    -0.227449782278
    H            3.700946627942     0.347799235124    -1.005046502579
    H            1.192551968559    -1.473973651066    -0.654289200412
    H            0.982759756573     1.764309242260     1.291042977802
    H            2.068415939778     2.176973835410    -0.072493115427
    H            2.024383486075    -1.119366898595    -2.180084679181
}

set scf_type df
set opt_type ts
set basis cc-pVDZ
set reference rhf
set geom_maxiter 400


mol.update_geometry()
mol.symmetrize(1e-3)

e, wfn = optimize('CCSD', return_wfn=True)
oeprop(wfn, "MULLIKEN_CHARGES")
mol.print_out()
print_variables()
--------------------------------------------------------------------------

  Memory set to  57.742 GiB by Python driver.

Scratch directory: /scratch1/maxbuskirk/
gradient() will perform analytic gradient computation.

*** tstart() called on skylm002.palmetto.clemson.edu
*** at Thu Feb 17 15:20:53 2022

   => Loading Basis Set <=

    Name: CC-PVDZ
    Role: ORBITAL
    Keyword: BASIS
    atoms 1-8, 14, 17-19     entry C          line   138 file /home/maxbuskirk/.conda/envs/psifour/share/psi4/basis/cc-pvdz.gbs 
    atoms 9-13, 15-16, 20-27 entry H          line    22 file /home/maxbuskirk/.conda/envs/psifour/share/psi4/basis/cc-pvdz.gbs 


         ---------------------------------------------------------
                                   SCF
               by Justin Turney, Rob Parrish, Andy Simmonett
                          and Daniel G. A. Smith
                              RHF Reference
                        1 Threads,  59127 MiB Core
         ---------------------------------------------------------

  ==> Geometry <==

    Molecular point group: c1
    Full point group: C1

    Geometry (in Angstrom), charge = 1, multiplicity = 1:

       Center              X                  Y                   Z               Mass       
    ------------   -----------------  -----------------  -----------------  -----------------
         C            1.573361342824     1.347527853419     0.461319791787    12.000000000000
         C            0.644297681607     0.632848723823    -0.516444262648    12.000000000000
         C           -0.661336171703     0.087739750614    -0.031296307370    12.000000000000
         C           -0.740397208995    -0.846830633306     1.023579718875    12.000000000000
         C           -1.993364246080    -1.266738197617     1.488141541240    12.000000000000
         C           -3.169778005276    -0.733804401321     0.930644252041    12.000000000000
         C           -3.093938961338     0.213986241445    -0.100416978424    12.000000000000
         C           -1.841186713686     0.621100060176    -0.587864561850    12.000000000000
         H           -1.790168352070     1.371888293213    -1.383537853936     1.007825032230
         H           -4.005232817851     0.639184741684    -0.530378388726     1.007825032230
         H           -4.145707731562    -1.057143085943     1.304839361458     1.007825032230
         H           -2.050050838909    -2.005346123177     2.292856835277     1.007825032230
         H            0.163859145102    -1.264889635817     1.476458197828     1.007825032230
         C            0.921982254941     0.675236950833    -1.890252872078    12.000000000000
         H            0.212043407796     0.255304892461    -2.609255315708     1.007825032230
         H            1.733307817810     1.298869041166    -2.279474310015     1.007825032230
         C            1.828133183786    -0.730719690249    -1.165301104494    12.000000000000
         C            3.089529567727    -0.340448109698    -0.393809606215    12.000000000000
         C            2.648135619585     0.332446011918     0.910777748218    12.000000000000
         H            2.210814814267    -0.416387622671     1.594134680545     1.007825032230
         H            3.474196278910     0.826424610807     1.445775094045     1.007825032230
         H            3.688590019938    -1.252494862738    -0.227449782278     1.007825032230
         H            3.700946627942     0.347799235124    -1.005046502579     1.007825032230
         H            1.192551968559    -1.473973651066    -0.654289200412     1.007825032230
         H            0.982759756573     1.764309242260     1.291042977802     1.007825032230
         H            2.068415939778     2.176973835410    -0.072493115427     1.007825032230
         H            2.024383486075    -1.119366898595    -2.180084679181     1.007825032230

  Running in c1 symmetry.

  Rotational constants: A =      0.06873  B =      0.02048  C =      0.01845 [cm^-1]
  Rotational constants: A =   2060.59229  B =    613.93511  C =    553.03269 [MHz]
  Nuclear repulsion =  678.174108750344544

  Charge       = 1
  Multiplicity = 1
  Electrons    = 86
  Nalpha       = 43
  Nbeta        = 43

  ==> Algorithm <==

  SCF Algorithm Type is DF.
  DIIS enabled.
  MOM disabled.
  Fractional occupation disabled.
  Guess Type is SAD.
  Energy threshold   = 1.00e-10
  Density threshold  = 1.00e-10
  Integral threshold = 1.00e-12

  ==> Primary Basis <==

  Basis Set: CC-PVDZ
    Blend: CC-PVDZ
    Number of shells: 117
    Number of basis functions: 243
    Number of Cartesian functions: 255
    Spherical Harmonics?: true
    Max angular momentum: 2

   => Loading Basis Set <=

    Name: (CC-PVDZ AUX)
    Role: JKFIT
    Keyword: DF_BASIS_SCF
    atoms 1-8, 14, 17-19     entry C          line   121 file /home/maxbuskirk/.conda/envs/psifour/share/psi4/basis/cc-pvdz-jkfit.gbs 
    atoms 9-13, 15-16, 20-27 entry H          line    51 file /home/maxbuskirk/.conda/envs/psifour/share/psi4/basis/cc-pvdz-jkfit.gbs 

  ==> Integral Setup <==

  DFHelper Memory: AOs need 0.500 GiB; user supplied 43.306 GiB. Using in-core AOs.

  ==> MemDFJK: Density-Fitted J/K Matrices <==

    J tasked:                   Yes
    K tasked:                   Yes
    wK tasked:                   No
    OpenMP threads:               1
    Memory [MiB]:             44345
    Algorithm:                 Core
    Schwarz Cutoff:           1E-12
    Mask sparsity (%):       8.0509
    Fitting Condition:        1E-10

   => Auxiliary Basis Set <=

  Basis Set: (CC-PVDZ AUX)
    Blend: CC-PVDZ-JKFIT
    Number of shells: 423
    Number of basis functions: 1185
    Number of Cartesian functions: 1347
    Spherical Harmonics?: true
    Max angular momentum: 3

  Minimum eigenvalue in the overlap matrix is 3.3480420724E-04.
  Reciprocal condition number of the overlap matrix is 4.7520860427E-05.
    Using symmetric orthogonalization.

  ==> Pre-Iterations <==

  SCF Guess: Superposition of Atomic Densities via on-the-fly atomic UHF (no occupation information).

   -------------------------
    Irrep   Nso     Nmo    
   -------------------------
     A        243     243 
   -------------------------
    Total     243     243
   -------------------------

  ==> Iterations <==

                           Total Energy        Delta E     RMS |[F,P]|

   @DF-RHF iter SAD:  -462.59940182211102   -4.62599e+02   0.00000e+00 
   @DF-RHF iter   1:  -462.68432132963642   -8.49195e-02   2.21178e-03 DIIS
   @DF-RHF iter   2:  -462.87740489149724   -1.93084e-01   9.12243e-04 DIIS
   @DF-RHF iter   3:  -462.90529035688706   -2.78855e-02   2.90763e-04 DIIS
   @DF-RHF iter   4:  -462.90914716805514   -3.85681e-03   8.71659e-05 DIIS
   @DF-RHF iter   5:  -462.90943636038531   -2.89192e-04   2.44345e-05 DIIS
   @DF-RHF iter   6:  -462.90947270323983   -3.63429e-05   7.50543e-06 DIIS
   @DF-RHF iter   7:  -462.90947736436942   -4.66113e-06   3.09141e-06 DIIS
   @DF-RHF iter   8:  -462.90947849988368   -1.13551e-06   1.42537e-06 DIIS
   @DF-RHF iter   9:  -462.90947886417155   -3.64288e-07   6.39485e-07 DIIS
   @DF-RHF iter  10:  -462.90947893049781   -6.63263e-08   3.03763e-07 DIIS
   @DF-RHF iter  11:  -462.90947894198871   -1.14909e-08   8.13015e-08 DIIS
   @DF-RHF iter  12:  -462.90947894283102   -8.42306e-10   2.86218e-08 DIIS
   @DF-RHF iter  13:  -462.90947894291270   -8.16840e-11   1.20332e-08 DIIS
   @DF-RHF iter  14:  -462.90947894292651   -1.38130e-11   3.80789e-09 DIIS
   @DF-RHF iter  15:  -462.90947894292509    1.42109e-12   1.31158e-09 DIIS
   @DF-RHF iter  16:  -462.90947894292822   -3.12639e-12   5.75323e-10 DIIS
   @DF-RHF iter  17:  -462.90947894292589    2.33058e-12   2.24253e-10 DIIS
   @DF-RHF iter  18:  -462.90947894292748   -1.59162e-12   1.19149e-10 DIIS
   @DF-RHF iter  19:  -462.90947894292822   -7.38964e-13   5.55681e-11 DIIS
  Energy and wave function converged.


  ==> Post-Iterations <==

    Orbital Energies [Eh]
    ---------------------

    Doubly Occupied:                                                      

       1A    -11.498476     2A    -11.470684     3A    -11.459808  
       4A    -11.407860     5A    -11.405912     6A    -11.400886  
       7A    -11.393080     8A    -11.392896     9A    -11.392193  
      10A    -11.379266    11A    -11.378055    12A    -11.376765  
      13A     -1.357775    14A     -1.285265    15A     -1.217386  
      16A     -1.178984    17A     -1.153111    18A     -1.143618  
      19A     -1.036861    20A     -0.999929    21A     -0.970221  
      22A     -0.958401    23A     -0.920050    24A     -0.858939  
      25A     -0.818575    26A     -0.806236    27A     -0.789869  
      28A     -0.780993    29A     -0.759895    30A     -0.755103  
      31A     -0.730370    32A     -0.723793    33A     -0.710300  
      34A     -0.688596    35A     -0.659379    36A     -0.647068  
      37A     -0.640633    38A     -0.635942    39A     -0.633648  
      40A     -0.622473    41A     -0.611504    42A     -0.474782  
      43A     -0.471692  

    Virtual:                                                              

      44A     -0.069153    45A     -0.010201    46A      0.001449  
      47A      0.015770    48A      0.036296    49A      0.049051  
      50A      0.058083    51A      0.077356    52A      0.088242  
      53A      0.099906    54A      0.103469    55A      0.112978  
      56A      0.119181    57A      0.122543    58A      0.136683  
      59A      0.149003    60A      0.151523    61A      0.161299  
      62A      0.193699    63A      0.201203    64A      0.220501  
      65A      0.224955    66A      0.240968    67A      0.273509  
      68A      0.293890    69A      0.306403    70A      0.312581  
      71A      0.330447    72A      0.342946    73A      0.357460  
      74A      0.413098    75A      0.416439    76A      0.450961  
      77A      0.452708    78A      0.469776    79A      0.479770  
      80A      0.500543    81A      0.517211    82A      0.538126  
      83A      0.554080    84A      0.561691    85A      0.567744  
      86A      0.588142    87A      0.592445    88A      0.594867  
      89A      0.605074    90A      0.612990    91A      0.620656  
      92A      0.629626    93A      0.635458    94A      0.664236  
      95A      0.668743    96A      0.671083    97A      0.687707  
      98A      0.688776    99A      0.701864   100A      0.708464  
     101A      0.714239   102A      0.717379   103A      0.724577  
     104A      0.736757   105A      0.739165   106A      0.743541  
     107A      0.745376   108A      0.758238   109A      0.761087  
     110A      0.768330   111A      0.773301   112A      0.783869  
     113A      0.796331   114A      0.801451   115A      0.825602  
     116A      0.841725   117A      0.856302   118A      0.861273  
     119A      0.939500   120A      0.943553   121A      0.973222  
     122A      0.992208   123A      1.007744   124A      1.012331  
     125A      1.023013   126A      1.025597   127A      1.044061  
     128A      1.064997   129A      1.097687   130A      1.098918  
     131A      1.120570   132A      1.129563   133A      1.138698  
     134A      1.152617   135A      1.155853   136A      1.174969  
     137A      1.182167   138A      1.209021   139A      1.212777  
     140A      1.273594   141A      1.294434   142A      1.318494  
     143A      1.329656   144A      1.345003   145A      1.385734  
     146A      1.413778   147A      1.433496   148A      1.466430  
     149A      1.473979   150A      1.504188   151A      1.514851  
     152A      1.534640   153A      1.579746   154A      1.609739  
     155A      1.615453   156A      1.625839   157A      1.629603  
     158A      1.632532   159A      1.658067   160A      1.666608  
     161A      1.686460   162A      1.697005   163A      1.711746  
     164A      1.723134   165A      1.728357   166A      1.737022  
     167A      1.741165   168A      1.757606   169A      1.759233  
     170A      1.765067   171A      1.773582   172A      1.779706  
     173A      1.783760   174A      1.794957   175A      1.810222  
     176A      1.816066   177A      1.822296   178A      1.835916  
     179A      1.838031   180A      1.850816   181A      1.856716  
     182A      1.881148   183A      1.885276   184A      1.899230  
     185A      1.909525   186A      1.929533   187A      1.937488  
     188A      1.944795   189A      1.958491   190A      1.968319  
     191A      1.975170   192A      1.992063   193A      2.004769  
     194A      2.010412   195A      2.020132   196A      2.034812  
     197A      2.044717   198A      2.062564   199A      2.072809  
     200A      2.092292   201A      2.116611   202A      2.123110  
     203A      2.133847   204A      2.164901   205A      2.179353  
     206A      2.207264   207A      2.214813   208A      2.234176  
     209A      2.253415   210A      2.267770   211A      2.278024  
     212A      2.306807   213A      2.336061   214A      2.340196  
     215A      2.365459   216A      2.371872   217A      2.411109  
     218A      2.423315   219A      2.452150   220A      2.473081  
     221A      2.533236   222A      2.559584   223A      2.582174  
     224A      2.600931   225A      2.614868   226A      2.631130  
     227A      2.637005   228A      2.665016   229A      2.678392  
     230A      2.710983   231A      2.753282   232A      2.783278  
     233A      2.811143   234A      2.823020   235A      2.850643  
     236A      2.878628   237A      2.897800   238A      2.911221  
     239A      2.959967   240A      2.993505   241A      3.045106  
     242A      3.114260   243A      3.768021  

    Final Occupation by Irrep:
              A 
    DOCC [    43 ]

  @DF-RHF Final Energy:  -462.90947894292822

   => Energetics <=

    Nuclear Repulsion Energy =            678.1741087503445442
    One-Electron Energy =               -1956.1726247625438191
    Two-Electron Energy =                 815.0890370692709439
    Total Energy =                       -462.9094789429282173

Computation Completed


Properties will be evaluated at   0.000000,   0.000000,   0.000000 [a0]

Properties computed using the SCF density matrix

  Nuclear Dipole Moment: [e a0]
     X:     8.8691      Y:     0.0855      Z:    -1.4408

  Electronic Dipole Moment: [e a0]
     X:    -7.4755      Y:     0.0677      Z:     0.3594

  Dipole Moment: [e a0]
     X:     1.3936      Y:     0.1531      Z:    -1.0814     Total:     1.7706

  Dipole Moment: [D]
     X:     3.5423      Y:     0.3892      Z:    -2.7487     Total:     4.5005


*** tstop() called on skylm002.palmetto.clemson.edu at Thu Feb 17 15:21:11 2022
Module time:
	user time   =      16.04 seconds =       0.27 minutes
	system time =       0.81 seconds =       0.01 minutes
	total time  =         18 seconds =       0.30 minutes
Total time:
	user time   =      16.04 seconds =       0.27 minutes
	system time =       0.81 seconds =       0.01 minutes
	total time  =         18 seconds =       0.30 minutes
 MINTS: Wrapper to libmints.
   by Justin Turney

   Calculation information:
      Number of threads:                 1
      Number of atoms:                  27
      Number of AO shells:             117
      Number of SO shells:             117
      Number of primitives:            339
      Number of atomic orbitals:       255
      Number of basis functions:       243

      Number of irreps:                  1
      Integral cutoff                 1.00e-12
      Number of functions per irrep: [ 243 ]

 OEINTS: Overlap, kinetic, potential, dipole, and quadrupole integrals
         stored in file 35.

      Computing two-electron integrals...done
      Computed 308543078 non-zero two-electron integrals.
        Stored in file 33.


*** tstart() called on skylm002.palmetto.clemson.edu
*** at Thu Feb 17 15:25:43 2022


	Wfn Parameters:
	--------------------
	Wavefunction         = CCSD
	Number of irreps     = 1
	Number of MOs        = 243
	Number of active MOs = 243
	AO-Basis             = NONE
	Semicanonical        = false
	Reference            = RHF
	Print Level          = 1

	IRREP	# MOs	# FZDC	# DOCC	# SOCC	# VIRT	# FZVR
	-----	-----	------	------	------	------	------
	 A	   243	    0	    43	    0	    200	    0
	Transforming integrals...
	IWL integrals will be deleted.
	(OO|OO)...
	Presorting SO-basis two-electron integrals.
	Sorting File: SO Ints (nn|nn) nbuckets = 1
	Constructing frozen core operators
	Starting first half-transformation.
	Sorting half-transformed integrals.
	First half integral transformation complete.
	Starting second half-transformation.
	Two-electron integral transformation complete.
	(OO|OV)...
	Starting second half-transformation.
	Two-electron integral transformation complete.
	(OO|VV)...
	Starting second half-transformation.
	Two-electron integral transformation complete.
	(OV|OO)...
	Starting first half-transformation.
	Sorting half-transformed integrals.
	First half integral transformation complete.
	Starting second half-transformation.
	Two-electron integral transformation complete.
	(OV|OV)...
	Starting second half-transformation.
	Two-electron integral transformation complete.
	(OV|VV)...
	Starting second half-transformation.
	Two-electron integral transformation complete.
	(VV|OO)...
	Starting first half-transformation.
	Sorting half-transformed integrals.
	First half integral transformation complete.
	Starting second half-transformation.
	Two-electron integral transformation complete.
	(VV|OV)...
	Starting second half-transformation.
	Two-electron integral transformation complete.
	(VV|VV)...
	Starting second half-transformation.
	Two-electron integral transformation complete.
	Frozen core energy     =      0.00000000000000

	Size of irrep 0 of <ab|cd> integrals:   1600.000 (MW) /  12800.000 (MB)
	Total:                                  1600.000 (MW) /  12800.000 (MB)

	Size of irrep 0 of <ia|bc> integrals:    344.000 (MW) /   2752.000 (MB)
	Total:                                   344.000 (MW) /   2752.000 (MB)

	Size of irrep 0 of tijab amplitudes:      73.960 (MW) /    591.680 (MB)
	Total:                                    73.960 (MW) /    591.680 (MB)

	Nuclear Rep. energy          =    678.17410875034454
	SCF energy                   =   -462.90947894292822
	One-electron energy          =  -1956.17262482889100
	Two-electron energy          =    815.08842275012967
	Reference energy             =   -462.91009332841679

*** tstop() called on skylm002.palmetto.clemson.edu at Thu Feb 17 15:34:29 2022
Module time:
	user time   =     210.64 seconds =       3.51 minutes
	system time =     103.42 seconds =       1.72 minutes
	total time  =        526 seconds =       8.77 minutes
Total time:
	user time   =     390.95 seconds =       6.52 minutes
	system time =     113.14 seconds =       1.89 minutes
	total time  =        816 seconds =      13.60 minutes
            **************************
            *                        *
            *        CCENERGY        *
            *                        *
            **************************

    Nuclear Rep. energy (wfn)     =  678.174108750344544
    SCF energy          (wfn)     = -462.909478942928217
    Reference energy    (file100) = -462.910093328416792

    Input parameters:
    -----------------
    Wave function   =     CCSD
    Reference wfn   =     RHF
    Brueckner       =     No
    Memory (Mbytes) =     62000.0
    Maxiter         =     50
    R_Convergence   =     1.0e-07
    E_Convergence   =     1.0e-08
    Restart         =     Yes
    DIIS            =     Yes
    AO Basis        =     NONE
    ABCD            =     NEW
    Cache Level     =     2
    Cache Type      =     LOW
    Print Level     =     1
    Num. of threads =     1
    # Amps to Print =     10
    Print MP2 Amps? =     No
    Analyze T2 Amps =     No
    Print Pair Ener =     No
    Local CC        =     No
    SCS-MP2         =     False
    SCSN-MP2        =     False
    SCS-CCSD        =     False

MP2 correlation energy -1.6422430423284380
                Solving CC Amplitude Equations
                ------------------------------
  Iter             Energy              RMS        T1Diag      D1Diag    New D1Diag    D2Diag
  ----     ---------------------    ---------   ----------  ----------  ----------   --------
     0        -1.642243042328438    0.000e+00    0.000000    0.000000    0.000000    0.175996
     1        -1.674657631430359    1.259e-01    0.007230    0.032116    0.032116    0.167763
     2        -1.720412127464596    4.336e-02    0.007408    0.030293    0.030293    0.180972
     3        -1.730611221718794    1.824e-02    0.008488    0.038417    0.038417    0.185378
     4        -1.730705074759820    5.673e-03    0.008623    0.038929    0.038929    0.187135
     5        -1.730835870790328    2.781e-03    0.008711    0.040318    0.040318    0.188239
     6        -1.730900526772865    8.180e-04    0.008736    0.040695    0.040695    0.188527
     7        -1.730875546059025    3.053e-04    0.008740    0.040821    0.040821    0.188579
     8        -1.730868944450605    1.062e-04    0.008744    0.040882    0.040882    0.188593
     9        -1.730873008147684    4.115e-05    0.008745    0.040905    0.040905    0.188593
    10        -1.730869965596084    1.968e-05    0.008746    0.040918    0.040918    0.188590
    11        -1.730869963222203    6.679e-06    0.008746    0.040923    0.040923    0.188589
    12        -1.730869703593765    3.169e-06    0.008747    0.040925    0.040925    0.188589
    13        -1.730869625442819    1.108e-06    0.008747    0.040925    0.040925    0.188588
    14        -1.730869603654855    6.881e-07    0.008747    0.040925    0.040925    0.188588
    15        -1.730869599283681    3.076e-07    0.008747    0.040925    0.040925    0.188588
    16        -1.730869594321326    1.726e-07    0.008747    0.040925    0.040925    0.188588
    17        -1.730869595658042    6.303e-08    0.008747    0.040925    0.040925    0.188588

    Iterations converged.


    Largest TIA Amplitudes:
             42  45        -0.0187406242
             35   0         0.0171845903
             35   4        -0.0099634844
             41  42         0.0099183738
             27   0         0.0098244641
             26   0        -0.0093314723
             42  86         0.0093268160
             39   0        -0.0081611586
             34   0        -0.0075494830
             41  48        -0.0073931844

    Largest TIjAb Amplitudes:
     42  42   1   1        -0.0620205941
     41  41   1   1        -0.0465715295
     42  42   2   2        -0.0374287309
     41  41   2   2        -0.0310195649
     41  41   0   0        -0.0278920295
     42  42   1   2        -0.0265385092
     42  42   2   1        -0.0265385092
     40  40   0   0        -0.0264580639
     41  41   0   2         0.0245721476
     41  41   2   0         0.0245721476

    SCF energy       (wfn)                    = -462.909478942928217
    Reference energy (file100)                = -462.910093328416792

    Opposite-spin MP2 correlation energy      =   -1.219964244916741
    Same-spin MP2 correlation energy          =   -0.422278797411697
    Singles MP2 correlation energy            =   -0.000000000000000
    MP2 correlation energy                    =   -1.642243042328438
      * MP2 total energy                      = -464.552336370745252

    Opposite-spin CCSD correlation energy     =   -1.349337890787236
    Same-spin CCSD correlation energy         =   -0.381531704870806
    Singles CCSD correlation energy           =    0.000000000000000
    CCSD correlation energy                   =   -1.730869595658042
      * CCSD total energy                     = -464.640962924074813


			**************************
			*                        *
			*         CCHBAR         *
			*                        *
			**************************


			**************************
			*        CCLAMBDA        *
			**************************


	Nuclear Rep. energy (wfn)     =  678.174108750344544
	Reference           (wfn)     =                    0
	SCF energy          (wfn)     = -462.909478942928217
	Reference energy    (CC_INFO) = -462.910093328416792
	CCSD energy         (CC_INFO) =   -1.730869595658042
	Total CCSD energy   (CC_INFO) = -464.640962924074813

	Input parameters:
	-----------------
	Maxiter           =     50
	Convergence       = 1.0e-07
	Restart           =     No
	Cache Level       =     2
	Model III         =     No
	DIIS              =     Yes
	AO Basis          =     No
	ABCD              =     NEW
	Local CC          =     No
	Parameters for left-handed eigenvectors:
	    Irr   Root  Ground-State?    EOM energy        R0
	  1   0     0        Yes       0.0000000000   1.0000000000
	Labels for eigenvector 1:
	LIA 0 -1, Lia 0 -1, LIJAB 0 -1, Lijab 0 -1, LIjAb 0 -1, 2LIjAb - LIjbA 0 -1
	Symmetry of left-hand state: A
	Symmetry of left-hand eigenvector: A

	          Solving Lambda Equations
	          ------------------------
	Iter     PseudoEnergy or Norm         RMS  
	----     ---------------------     --------
	   0        -1.730915958085303    0.000e+00
	   1        -1.678421368932516    3.183e-02
	   2        -1.673823084702186    6.971e-03
	   3        -1.672476056334049    2.774e-03
	   4        -1.672351468831982    9.967e-04
	   5        -1.672414131455445    5.235e-04
	   6        -1.672404805477892    1.915e-04
	   7        -1.672401749978150    9.232e-05
	   8        -1.672404601168800    3.968e-05
	   9        -1.672404567748018    1.932e-05
	  10        -1.672404930565129    8.059e-06
	  11        -1.672404780412055    3.506e-06
	  12        -1.672404634469178    1.465e-06
	  13        -1.672404630685819    6.341e-07
	  14        -1.672404616848856    2.824e-07
	  15        -1.672404615407237    1.337e-07
	  16        -1.672404615566125    6.515e-08

	Largest LIA Amplitudes:
	         42  45        -0.0150152959
	         35   0         0.0128630747
	         41  42         0.0079305401
	         35   4        -0.0074905254
	         42  86         0.0073744373
	         27   0         0.0071236050
	         26   0        -0.0066205984
	         39   0        -0.0065098736
	         41  48        -0.0060596022
	         41   2        -0.0060480416

	Largest LIjAb Amplitudes:
	 42  42   1   1        -0.0578903602
	 41  41   1   1        -0.0430485624
	 42  42   2   2        -0.0348432616
	 41  41   2   2        -0.0287455286
	 41  41   0   0        -0.0258091658
	 42  42   1   2        -0.0256217405
	 42  42   2   1        -0.0256217405
	 40  40   0   0        -0.0244343204
	 41  41   0   2         0.0228888233
	 41  41   2   0         0.0228888233

	Iterations converged.

	Overlap <L|e^T> =        0.33516309936

			**************************
			*                        *
			*        CCDENSITY       *
			*                        *
			**************************


	Input parameters:
	-----------------
	Wave function    =   CCSD
	Reference wfn    =   RHF
	Dertype          = 1
	Tolerance        = 1.0e-14
	Cache Level      = 2
	AO Basis         = No
	OPDM Only        = No
	Relax OPDM       = Yes
	Compute Xi       = No
	Use Zeta         = No
	Xi connected     = Yes
	Compute NO       = No

	Nuclear Rep. energy (wfn)     =  678.174108750344544
	SCF energy          (wfn)     = -462.909478942928217
	Reference energy    (file100) = -462.910093328416792
	CCSD energy         (CC_INFO) =   -1.730869595658042
	Total CCSD energy   (CC_INFO) = -464.640962924074813
	Number of States = 1

	Ground?  State     EOM Energy       R0
	  Yes     0  A    0.0000000000   1.00000000

	Virial Theorem Data:
	--------------------
	Kinetic energy (ref)   =  462.024208856591088
	Kinetic energy (corr)  =    1.648687254726441
	Kinetic energy (total) =  463.672896111317527
	-V/T (ref)             =    2.001917398384855
	-V/T (corr)            =    2.049847137894711
	-V/T (total)           =    2.002087822732094
    Molecular point group: c1
    Full point group: C1

    Geometry (in Bohr), charge = 1, multiplicity = 1:

       Center              X                  Y                   Z       
    ------------   -----------------  -----------------  -----------------
         C            2.973222034320     2.546458589388     0.871768062731
         C            1.217546161505     1.195910766871    -0.975938215469
         C           -1.249744241377     0.165804098976    -0.059141449667
         C           -1.399147949054    -1.600277971596     1.934285336247
         C           -3.766912493371    -2.393788266152     2.812179948861
         C           -5.990012308472    -1.386689348152     1.758662756589
         C           -5.846697285812     0.404375390947    -0.189760587567
         C           -3.479338634698     1.173709010238    -1.110903020759
         H           -3.382927903874     2.592493148894    -2.614507628143
         H           -7.568793094434     1.207884105354    -1.002269897554
         H           -7.834252208845    -1.997710907854     2.465789030873
         H           -3.874034628803    -3.789554959553     4.332871463558
         H            0.309648907395    -2.390294990624     2.790101629582
         C            1.742293954371     1.276012906864    -3.572060236087
         H            0.400703967443     0.482456325241    -4.930777938083
         H            3.275477066776     2.454506760640    -4.307582155945
         C            3.454671038217    -1.380860089050    -2.202099941187
         C            5.838364739508    -0.643353687259    -0.744192301321
         C            5.004251064085     0.628231914026     1.721120505293
         H            4.177834513070    -0.786858568879     3.012477953324
         H            6.565279473225     1.561716177763     2.732118966753
         H            6.970424926780    -2.366872264118    -0.429817795800
         H            6.993775531747     0.657245301028    -1.899262633223
         H            2.253596610952    -2.785406516656    -1.236427395623
         H            1.857146787045     3.334061268485     2.439717644242
         H            3.908739639712     4.113884331212    -0.136992134138
         H            3.825530361581    -2.115296872248    -4.119762973958

	Presorting MO-basis TPDM.
	Sorting File: MO TPDM (AA|AA) nbuckets = 1
	Starting first half-transformation.
	Sorting half-transformed TPDM.
	First half integral transformation complete.


  -Total gradient:
     Atom            X                  Y                   Z
    ------   -----------------  -----------------  -----------------
       1       -0.000599723833     0.002141391284     0.001199295020
       2        0.013808704119    -0.016256263566    -0.007110571686
       3       -0.001701109327    -0.000287516380     0.000128938957
       4        0.001111782207    -0.000908514357    -0.001430677856
       5       -0.000864533181    -0.000026754648     0.000010360648
       6        0.000732595819    -0.000030299976    -0.000052958931
       7       -0.000716413331     0.000030681831    -0.000208808352
       8        0.000225918728     0.000833942978     0.001651386022
       9       -0.000483719882     0.000139711454     0.000253970249
      10        0.000014716868     0.000086286168    -0.000084467771
      11       -0.000112545346     0.000047744581     0.000030951335
      12        0.000263635904    -0.000005676458     0.000084015979
      13        0.000072747256    -0.000212533727     0.000111388296
      14       -0.010088316107     0.014859338102    -0.005939610152
      15        0.000606472025    -0.000760871875     0.000137405324
      16        0.001510533218    -0.001750185729    -0.000013533662
      17       -0.003958109921     0.002726911794     0.007580565183
      18        0.000388445943    -0.000343276584     0.001324559738
      19        0.000149034347     0.001028230369     0.000887074421
      20       -0.000394373294    -0.000507673092    -0.000356535738
      21       -0.000003150955    -0.000389992785     0.000727535601
      22        0.000357031112     0.000046430833    -0.000336253245
      23       -0.000239711998     0.000504825637    -0.000309549433
      24       -0.001431247996    -0.001676888925     0.002600377425
      25       -0.000052334440     0.001499567830    -0.000236052801
      26        0.000486303040    -0.000647571046    -0.000750150790
      27        0.000917369027    -0.000141043710     0.000101346223


			-----------------------------------------
			 OPTKING 2.0: for geometry optimizations 
			  - R.A. King,  Bethel University        
			-----------------------------------------

	Internal coordinates to be generated automatically.
	Detected frag 1 with atoms:  1 2 3 4 5 6 7 8 9 10 11 12 13 14 15 16 17 18 19 20
	 21 22 23 24 25 26 27
	---Fragment 1 Bond Connectivity---
	 1 : 2 19 25 26
	 2 : 1 3 14 17
	 3 : 2 4 8
	 4 : 3 5 13
	 5 : 4 6 12
	 6 : 5 7 11
	 7 : 6 8 10
	 8 : 3 7 9
	 9 : 8
	 10 : 7
	 11 : 6
	 12 : 5
	 13 : 4
	 14 : 2 15 16 17
	 15 : 14
	 16 : 14
	 17 : 2 14 18 24 27
	 18 : 17 19 22 23
	 19 : 1 18 20 21
	 20 : 19
	 21 : 19
	 22 : 18
	 23 : 18
	 24 : 17
	 25 : 1
	 26 : 1
	 27 : 17

	---Fragment 1 Geometry and Gradient---
	 C           2.9732220343        2.5464585894        0.8717680627
	 C           1.2175461615        1.1959107669       -0.9759382155
	 C          -1.2497442414        0.1658040990       -0.0591414497
	 C          -1.3991479491       -1.6002779716        1.9342853362
	 C          -3.7669124934       -2.3937882662        2.8121799489
	 C          -5.9900123085       -1.3866893482        1.7586627566
	 C          -5.8466972858        0.4043753909       -0.1897605876
	 C          -3.4793386347        1.1737090102       -1.1109030208
	 H          -3.3829279039        2.5924931489       -2.6145076281
	 H          -7.5687930944        1.2078841054       -1.0022698976
	 H          -7.8342522088       -1.9977109079        2.4657890309
	 H          -3.8740346288       -3.7895549596        4.3328714636
	 H           0.3096489074       -2.3902949906        2.7901016296
	 C           1.7422939544        1.2760129069       -3.5720602361
	 H           0.4007039674        0.4824563252       -4.9307779381
	 H           3.2754770668        2.4545067606       -4.3075821559
	 C           3.4546710382       -1.3808600890       -2.2020999412
	 C           5.8383647395       -0.6433536873       -0.7441923013
	 C           5.0042510641        0.6282319140        1.7211205053
	 H           4.1778345131       -0.7868585689        3.0124779533
	 H           6.5652794732        1.5617161778        2.7321189668
	 H           6.9704249268       -2.3668722641       -0.4298177958
	 H           6.9937755317        0.6572453010       -1.8992626332
	 H           2.2535966110       -2.7854065167       -1.2364273956
	 H           1.8571467870        3.3340612685        2.4397176442
	 H           3.9087396397        4.1138843312       -0.1369921341
	 H           3.8255303616       -2.1152968722       -4.1197629740
	            -0.0005997238        0.0021413913        0.0011992950
	             0.0138087041       -0.0162562636       -0.0071105717
	            -0.0017011093       -0.0002875164        0.0001289390
	             0.0011117822       -0.0009085144       -0.0014306779
	            -0.0008645332       -0.0000267546        0.0000103606
	             0.0007325958       -0.0000303000       -0.0000529589
	            -0.0007164133        0.0000306818       -0.0002088084
	             0.0002259187        0.0008339430        0.0016513860
	            -0.0004837199        0.0001397115        0.0002539702
	             0.0000147169        0.0000862862       -0.0000844678
	            -0.0001125453        0.0000477446        0.0000309513
	             0.0002636359       -0.0000056765        0.0000840160
	             0.0000727473       -0.0002125337        0.0001113883
	            -0.0100883161        0.0148593381       -0.0059396102
	             0.0006064720       -0.0007608719        0.0001374053
	             0.0015105332       -0.0017501857       -0.0000135337
	            -0.0039581099        0.0027269118        0.0075805652
	             0.0003884459       -0.0003432766        0.0013245597
	             0.0001490343        0.0010282304        0.0008870744
	            -0.0003943733       -0.0005076731       -0.0003565357
	            -0.0000031510       -0.0003899928        0.0007275356
	             0.0003570311        0.0000464308       -0.0003362532
	            -0.0002397120        0.0005048256       -0.0003095494
	            -0.0014312480       -0.0016768889        0.0026003774
	            -0.0000523344        0.0014995678       -0.0002360528
	             0.0004863030       -0.0006475710       -0.0007501508
	             0.0009173690       -0.0001410437        0.0001013462

	Previous optimization step data not found.  Starting new optimization.

	---Fragment 1 Intrafragment Coordinates---
	 - Coordinate -           - BOHR/RAD -       - ANG/DEG -
	 R(1,2)           =         2.884510	       1.526417
	 R(1,19)          =         2.919944	       1.545168
	 R(1,25)          =         2.079521	       1.100435
	 R(1,26)          =         2.085573	       1.103638
	 R(2,3)           =         2.826510	       1.495725
	 R(2,14)          =         2.649835	       1.402232
	 R(2,17)          =         3.626010	       1.918802
	 R(3,4)           =         2.667418	       1.411537
	 R(3,8)           =         2.663300	       1.409358
	 R(4,5)           =         2.647011	       1.400738
	 R(4,13)          =         2.067979	       1.094327
	 R(5,6)           =         2.658255	       1.406688
	 R(5,12)          =         2.066916	       1.093765
	 R(6,7)           =         2.650435	       1.402550
	 R(6,11)          =         2.067510	       1.094079
	 R(7,8)           =         2.654198	       1.404541
	 R(7,10)          =         2.066739	       1.093671
	 R(8,9)           =         2.069558	       1.095163
	 R(14,15)         =         2.067779	       1.094221
	 R(14,16)         =         2.068935	       1.094833
	 R(14,17)         =         3.444996	       1.823014
	 R(17,18)         =         2.889880	       1.529259
	 R(17,24)         =         2.085151	       1.103414
	 R(17,27)         =         2.086712	       1.104240
	 R(18,19)         =         2.896626	       1.532829
	 R(18,22)         =         2.085883	       1.103802
	 R(18,23)         =         2.088234	       1.105046
	 R(19,20)         =         2.086396	       1.104073
	 R(19,21)         =         2.080942	       1.101187
	 B(1,2,3)         =         2.087674	     119.614909
	 B(1,2,14)        =         2.086206	     119.530795
	 B(1,2,17)        =         1.745498	     100.009686
	 B(1,19,18)       =         1.814315	     103.952580
	 B(1,19,20)       =         1.928464	     110.492836
	 B(1,19,21)       =         1.948096	     111.617673
	 B(2,1,19)        =         1.877698	     107.584180
	 B(2,1,25)        =         1.910964	     109.490196
	 B(2,1,26)        =         1.891334	     108.365453
	 B(2,3,4)         =         2.132452	     122.180523
	 B(2,3,8)         =         2.054147	     117.693963
	 B(2,14,15)       =         2.098657	     120.244187
	 B(2,14,16)       =         2.108623	     120.815187
	 B(2,14,17)       =         1.250881	      71.670217
	 B(2,17,14)       =         0.766623	      43.924263
	 B(2,17,18)       =         1.728395	      99.029729
	 B(2,17,24)       =         1.537483	      88.091273
	 B(2,17,27)       =         2.305715	     132.107736
	 B(3,2,14)        =         2.096314	     120.109971
	 B(3,2,17)        =         1.970616	     112.907986
	 B(3,4,5)         =         2.090284	     119.764469
	 B(3,4,13)        =         2.112887	     121.059488
	 B(3,8,7)         =         2.094322	     119.995792
	 B(3,8,9)         =         2.102911	     120.487926
	 B(4,3,8)         =         2.093010	     119.920651
	 B(4,5,6)         =         2.097934	     120.202751
	 B(4,5,12)        =         2.086105	     119.525020
	 B(5,4,13)        =         2.079868	     119.167635
	 B(5,6,7)         =         2.096873	     120.141963
	 B(5,6,11)        =         2.092635	     119.899135
	 B(6,5,12)        =         2.099112	     120.270232
	 B(6,7,8)         =         2.093507	     119.949141
	 B(6,7,10)        =         2.102121	     120.442640
	 B(7,6,11)        =         2.093672	     119.958573
	 B(7,8,9)         =         2.085648	     119.498811
	 B(8,7,10)        =         2.087556	     119.608171
	 B(14,2,17)       =         1.124088	      64.405520
	 B(14,17,18)      =         1.997416	     114.443511
	 B(14,17,24)      =         2.001320	     114.667188
	 B(14,17,27)      =         1.565125	      89.675084
	 B(15,14,16)      =         2.055335	     117.761998
	 B(15,14,17)      =         1.862751	     106.727782
	 B(16,14,17)      =         1.784752	     102.258770
	 B(17,18,19)      =         1.879556	     107.690649
	 B(17,18,22)      =         1.888965	     108.229699
	 B(17,18,23)      =         1.913760	     109.650351
	 B(18,17,24)      =         1.996966	     114.417697
	 B(18,17,27)      =         1.989793	     114.006757
	 B(18,19,20)      =         1.921010	     110.065739
	 B(18,19,21)      =         1.976216	     113.228849
	 B(19,1,25)       =         1.985371	     113.753380
	 B(19,1,26)       =         1.899072	     108.808827
	 B(19,18,22)      =         1.972227	     113.000312
	 B(19,18,23)      =         1.935514	     110.896781
	 B(20,19,21)      =         1.876204	     107.498598
	 B(22,18,23)      =         1.873082	     107.319674
	 B(24,17,27)      =         1.865958	     106.911517
	 B(25,1,26)       =         1.897365	     108.710995
	 D(1,2,3,4)       =        -0.999600	     -57.272844
	 D(1,2,3,8)       =         2.051067	     117.517468
	 D(1,2,14,15)     =        -3.032974	    -173.776582
	 D(1,2,14,16)     =        -0.112741	      -6.459575
	 D(1,2,14,17)     =         1.520931	      87.142921
	 D(1,2,17,14)     =        -2.060565	    -118.061697
	 D(1,2,17,18)     =        -0.035299	      -2.022486
	 D(1,2,17,24)     =         1.961802	     112.402994
	 D(1,2,17,27)     =        -2.379961	    -136.361701
	 D(1,19,18,17)    =        -0.826907	     -47.378270
	 D(1,19,18,22)    =        -2.912210	    -166.857330
	 D(1,19,18,23)    =         1.267028	      72.595347
	 D(2,1,19,18)     =         0.794355	      45.513211
	 D(2,1,19,20)     =        -1.266036	     -72.538539
	 D(2,1,19,21)     =         2.930369	     167.897757
	 D(2,3,4,5)       =         3.078499	     176.385023
	 D(2,3,4,13)      =        -0.081658	      -4.678658
	 D(2,3,8,7)       =        -3.062237	    -175.453243
	 D(2,3,8,9)       =         0.052687	       3.018754
	 D(2,14,17,18)    =        -1.345481	     -77.090361
	 D(2,14,17,24)    =         1.012588	      58.017029
	 D(2,14,17,27)    =         2.906482	     166.529176
	 D(2,17,14,15)    =        -2.042591	    -117.031849
	 D(2,17,14,16)    =         2.071746	     118.702309
	 D(2,17,18,19)    =         0.501330	      28.724119
	 D(2,17,18,22)    =         2.638832	     151.193933
	 D(2,17,18,23)    =        -1.606319	     -92.035326
	 D(3,2,1,19)      =         1.721122	      98.613044
	 D(3,2,1,25)      =        -0.444534	     -25.469934
	 D(3,2,1,26)      =        -2.511494	    -143.898017
	 D(3,2,14,15)     =        -0.064507	      -3.695990
	 D(3,2,14,16)     =         2.855725	     163.621017
	 D(3,2,14,17)     =        -1.793788	    -102.776486
	 D(3,2,17,14)     =         1.983899	     113.669036
	 D(3,2,17,18)     =        -2.274020	    -130.291754
	 D(3,2,17,24)     =        -0.276919	     -15.866273
	 D(3,2,17,27)     =         1.664504	      95.369032
	 D(3,4,5,6)       =        -0.029161	      -1.670791
	 D(3,4,5,12)      =         3.121380	     178.841893
	 D(3,8,7,6)       =        -0.011657	      -0.667894
	 D(3,8,7,10)      =         3.131313	     179.411012
	 D(4,3,2,14)      =         2.315265	     132.654914
	 D(4,3,2,17)      =         1.046104	      59.937334
	 D(4,3,8,7)       =        -0.009430	      -0.540328
	 D(4,3,8,9)       =         3.105493	     177.931670
	 D(4,5,6,7)       =         0.008113	       0.464814
	 D(4,5,6,11)      =        -3.129838	    -179.326487
	 D(5,4,3,8)       =         0.029803	       1.707588
	 D(5,6,7,8)       =         0.012402	       0.710561
	 D(5,6,7,10)      =        -3.130580	    -179.369012
	 D(6,5,4,13)      =         3.130644	     179.372709
	 D(6,7,8,9)       =        -3.126845	    -179.155045
	 D(7,6,5,12)      =         3.140690	     179.948281
	 D(8,3,2,14)      =        -0.917254	     -52.554774
	 D(8,3,2,17)      =        -2.186415	    -125.272353
	 D(8,3,4,13)      =        -3.130354	    -179.356093
	 D(8,7,6,11)      =        -3.132836	    -179.498262
	 D(9,8,7,10)      =         0.016124	       0.923861
	 D(10,7,6,11)     =         0.007368	       0.422164
	 D(11,6,5,12)     =         0.002740	       0.156980
	 D(12,5,4,13)     =        -0.002000	      -0.114607
	 D(14,2,1,19)     =        -1.592731	     -91.256783
	 D(14,2,1,25)     =         2.524797	     144.660239
	 D(14,2,1,26)     =         0.457837	      26.232156
	 D(14,2,17,18)    =         2.025266	     116.039211
	 D(14,2,17,24)    =        -2.260818	    -129.535309
	 D(14,2,17,27)    =        -0.319395	     -18.300004
	 D(14,17,18,19)   =         1.255464	      71.932791
	 D(14,17,18,22)   =        -2.890220	    -165.597395
	 D(14,17,18,23)   =        -0.852186	     -48.826654
	 D(15,14,2,17)    =         1.729281	      99.080496
	 D(15,14,17,18)   =         2.895114	     165.877789
	 D(15,14,17,24)   =        -1.030003	     -59.014821
	 D(15,14,17,27)   =         0.863891	      49.497327
	 D(16,14,2,17)    =        -1.633672	     -93.602497
	 D(16,14,17,18)   =         0.726265	      41.611948
	 D(16,14,17,24)   =         3.084334	     176.719338
	 D(16,14,17,27)   =        -1.304957	     -74.768515
	 D(17,2,1,19)     =        -0.438026	     -25.097033
	 D(17,2,1,25)     =        -2.603682	    -149.180012
	 D(17,2,1,26)     =         1.612543	      92.391905
	 D(17,18,19,20)   =         1.238622	      70.967813
	 D(17,18,19,21)   =        -2.944241	    -168.692556
	 D(18,19,1,25)    =         2.914183	     166.970388
	 D(18,19,1,26)    =        -1.251181	     -71.687402
	 D(19,18,17,24)   =        -1.104582	     -63.287872
	 D(19,18,17,27)   =         3.023148	     173.213603
	 D(20,19,1,25)    =         0.853791	      48.918637
	 D(20,19,1,26)    =         2.971612	     170.260848
	 D(20,19,18,22)   =        -0.846681	     -48.511246
	 D(20,19,18,23)   =        -2.950629	    -169.058570
	 D(21,19,1,25)    =        -1.232989	     -70.645066
	 D(21,19,1,26)    =         0.884832	      50.697145
	 D(21,19,18,22)   =         1.253642	      71.828385
	 D(21,19,18,23)   =        -0.850306	     -48.718938
	 D(22,18,17,24)   =         1.032920	      59.181943
	 D(22,18,17,27)   =        -1.122536	     -64.316582
	 D(23,18,17,24)   =         3.070954	     175.952683
	 D(23,18,17,27)   =         0.915498	      52.454158
	 R(4,19)          =         6.783452	       3.589648

	Current energy   :      -464.6409629241

	Generating empirical Hessian (Schlegel '84) for each fragment.
	Taking PRFO optimization step.
	Maximizing along 1 lowest eigenvalue of Hessian.

 RFO min eigenvalues
 -0.004290 -0.000000 -0.000000 -0.000000 -0.000000 -0.000000 -0.000000 -0.000000
 -0.000000 -0.000000 -0.000000 -0.000000 -0.000000 -0.000000 -0.000000 -0.000000
 -0.000000 -0.000000 -0.000000 -0.000000 -0.000000 -0.000000 -0.000000 -0.000000
 -0.000000 -0.000000 -0.000000 -0.000000 -0.000000 -0.000000 -0.000000 -0.000000
 -0.000000 -0.000000 -0.000000 -0.000000 -0.000000 -0.000000 -0.000000 -0.000000
 -0.000000 -0.000000 -0.000000 -0.000000 -0.000000 -0.000000 -0.000000 -0.000000
 -0.000000 -0.000000 -0.000000 -0.000000 -0.000000 -0.000000 -0.000000 -0.000000
  0.000000  0.000000  0.000000  0.000000  0.000000  0.000000  0.000000  0.000000
  0.000000  0.000000  0.000000  0.000000  0.000000  0.000000  0.000000  0.000000
  0.000000  0.000000  0.000000  0.000000  0.000000  0.000000  0.000000  0.000000
  0.000000  0.000000  0.000000  0.000000  0.000000  0.000000  0.000000  0.000000
  0.000000  0.000000  0.000000  0.000000  0.000000  0.000000  0.000000  0.000000
  0.000000  0.000000  0.000000  0.000000  0.000000  0.000000  0.000000  0.000000
  0.000000  0.000000  0.000000  0.000000  0.000000  0.000000  0.000000  0.000000
  0.003833  0.005282  0.006948  0.012413  0.013817  0.016893  0.017113  0.017239
  0.017341  0.017496  0.017559  0.017645  0.017713  0.017792  0.024485  0.029177
  0.030531  0.035143  0.036444  0.037699  0.043083  0.048297  0.051220  0.054641
  0.057036  0.061448  0.068317  0.068341  0.070014  0.072191  0.073816  0.076301
  0.083038  0.098927  0.107664  0.110950  0.121023  0.126609  0.155920  0.159947
  0.159973  0.159995  0.159999  0.160000  0.199427  0.219972  0.220003  0.236504
  0.259828  0.265014  0.275514  0.292199  0.317218  0.331303  0.332175  0.332357
  0.332652  0.332830  0.333104  0.335512  0.336341  0.342228  0.342600  0.343173
  0.343293  0.343455  0.343812  0.343918  0.359119  0.402256  0.408324  0.440950
  0.443482  0.449571  0.452926

 RFO max eigenvalues
 -0.000000  0.000000
	|RFO target step|  :        0.4697833408
	RFO gradient       :       -0.0091328244
	RFO hessian        :        0.0151695465
	Projected Delta(E) :       -0.0021434623

	Back-transformation to cartesian coordinates...
	Successfully converged to displaced geometry.
	First geometry is closer to target in internal coordinates, so am using that one.
	First geometry has RMS(Delta(q)) = 4.12e-03

	--- Internal Coordinate Step in ANG or DEG, aJ/ANG or AJ/DEG ---
	 ---------------------------------------------------------------------------
	   Coordinate                Previous        Force       Change         New 
	   ----------                --------       ------       ------       ------
	    1 R(1,2)          =      1.526417    -0.019618    -0.000934     1.525483
	    2 R(1,19)         =      1.545168     0.010270     0.006525     1.551692
	    3 R(1,25)         =      1.100435    -0.003444     0.003643     1.104078
	    4 R(1,26)         =      1.103638    -0.000777     0.002813     1.106450
	    5 R(2,3)          =      1.495725    -0.015953    -0.002873     1.492852
	    6 R(2,14)         =      1.402232    -0.001178     0.001434     1.403666
	    7 R(2,17)         =      1.918802     0.054504     0.041775     1.960577
	    8 R(3,4)          =      1.411537     0.000674     0.005517     1.417054
	    9 R(3,8)          =      1.409358    -0.002649     0.007363     1.416721
	   10 R(4,5)          =      1.400738    -0.002630    -0.000085     1.400652
	   11 R(4,13)         =      1.094327    -0.001544     0.005751     1.100078
	   12 R(5,6)          =      1.406688     0.002022     0.007728     1.414416
	   13 R(5,12)         =      1.093765    -0.000428     0.004058     1.097823
	   14 R(6,7)          =      1.402550     0.000399     0.005509     1.408059
	   15 R(6,11)         =      1.094079    -0.000798     0.000094     1.094173
	   16 R(7,8)          =      1.404541    -0.001519     0.000039     1.404580
	   17 R(7,10)         =      1.093671    -0.000449     0.006004     1.099676
	   18 R(8,9)          =      1.095163     0.000916     0.005089     1.100252
	   19 R(14,15)        =      1.094221     0.001580     0.001250     1.095471
	   20 R(14,16)        =      1.094833    -0.001048     0.000375     1.095208
	   21 R(14,17)        =      1.823014    -0.040928    -0.023629     1.799385
	   22 R(17,18)        =      1.529259    -0.012370    -0.002897     1.526362
	   23 R(17,24)        =      1.103414    -0.026020    -0.004105     1.099309
	   24 R(17,27)        =      1.104240    -0.000985     0.001859     1.106100
	   25 R(18,19)        =      1.532829     0.011832     0.002422     1.535250
	   26 R(18,22)        =      1.103802    -0.000863     0.001009     1.104811
	   27 R(18,23)        =      1.105046    -0.002908    -0.000160     1.104886
	   28 R(19,20)        =      1.104073    -0.002306     0.000727     1.104800
	   29 R(19,21)        =      1.101187    -0.001451     0.000002     1.101190
	   30 B(1,2,3)        =    119.614909    -0.000019     0.082045   119.696954
	   31 B(1,2,14)       =    119.530795    -0.000052     0.234463   119.765258
	   32 B(1,2,17)       =    100.009686     0.000011    -0.436696    99.572990
	   33 B(1,19,18)      =    103.952580     0.000075     1.190534   105.143115
	   34 B(1,19,20)      =    110.492836     0.000003    -0.062387   110.430450
	   35 B(1,19,21)      =    111.617673    -0.000057    -0.490216   111.127458
	   36 B(2,1,19)       =    107.584180    -0.000043     0.456915   108.041095
	   37 B(2,1,25)       =    109.490196    -0.000025    -0.219474   109.270722
	   38 B(2,1,26)       =    108.365453     0.000061     0.066686   108.432139
	   39 B(2,3,4)        =    122.180523     0.000084     0.084589   122.265112
	   40 B(2,3,8)        =    117.693963    -0.000103    -0.413517   117.280446
	   41 B(2,14,15)      =    120.244187    -0.000036    -0.210111   120.034076
	   42 B(2,14,16)      =    120.815187    -0.000040    -0.355093   120.460093
	   43 B(2,14,17)      =     71.670217     0.000327     2.661920    74.332136
	   44 B(2,17,14)      =     43.924263    -0.000033    -0.346111    43.578152
	   45 B(2,17,18)      =     99.029729    -0.000065    -0.136546    98.893182
	   46 B(2,17,24)      =     88.091273     0.000020     0.340135    88.431408
	   47 B(2,17,27)      =    132.107736    -0.000009    -0.383776   131.723960
	   48 B(3,2,14)       =    120.109971     0.000097     0.045853   120.155823
	   49 B(3,2,17)       =    112.907986     0.000113     0.342193   113.250179
	   50 B(3,4,5)        =    119.764469    -0.000002    -0.222151   119.542317
	   51 B(3,4,13)       =    121.059488    -0.000010     0.235451   121.294939
	   52 B(3,8,7)        =    119.995792    -0.000021    -0.151443   119.844348
	   53 B(3,8,9)        =    120.487926    -0.000027     0.180953   120.668879
	   54 B(4,3,8)        =    119.920651     0.000020     0.339889   120.260540
	   55 B(4,5,6)        =    120.202751    -0.000003    -0.071753   120.130998
	   56 B(4,5,12)       =    119.525020     0.000023    -0.118115   119.406905
	   57 B(5,4,13)       =    119.167635     0.000013    -0.011893   119.155743
	   58 B(5,6,7)        =    120.141963    -0.000014     0.246476   120.388439
	   59 B(5,6,11)       =    119.899135     0.000002    -0.061106   119.838029
	   60 B(6,5,12)       =    120.270232    -0.000019     0.190035   120.460267
	   61 B(6,7,8)        =    119.949141     0.000021    -0.140964   119.808177
	   62 B(6,7,10)       =    120.442640    -0.000019     0.217920   120.660560
	   63 B(7,6,11)       =    119.958573     0.000012    -0.185072   119.773501
	   64 B(7,8,9)        =    119.498811     0.000049    -0.024362   119.474448
	   65 B(8,7,10)       =    119.608171    -0.000002    -0.077433   119.530738
	   66 B(14,2,17)      =     64.405520    -0.000293    -2.315809    62.089712
	   67 B(14,17,18)     =    114.443511    -0.000065    -0.312965   114.130546
	   68 B(14,17,24)     =    114.667188    -0.000013    -0.091336   114.575851
	   69 B(14,17,27)     =     89.675084     0.000027    -0.054313    89.620771
	   70 B(15,14,16)     =    117.761998     0.000036    -0.239399   117.522599
	   71 B(15,14,17)     =    106.727782    -0.000070     0.090692   106.818474
	   72 B(16,14,17)     =    102.258770    -0.000082     0.458295   102.717065
	   73 B(17,18,19)     =    107.690649    -0.000008     0.135586   107.826235
	   74 B(17,18,22)     =    108.229699    -0.000019    -0.109423   108.120277
	   75 B(17,18,23)     =    109.650351     0.000035     0.133559   109.783910
	   76 B(18,17,24)     =    114.417697     0.000033     0.459322   114.877018
	   77 B(18,17,27)     =    114.006757     0.000059     0.178643   114.185400
	   78 B(18,19,20)     =    110.065739     0.000025     0.041275   110.107014
	   79 B(18,19,21)     =    113.228849    -0.000060    -0.416203   112.812646
	   80 B(19,1,25)      =    113.753380     0.000070    -0.637106   113.116274
	   81 B(19,1,26)      =    108.808827    -0.000062     0.394249   109.203077
	   82 B(19,18,22)     =    113.000312     0.000030    -0.239063   112.761249
	   83 B(19,18,23)     =    110.896781    -0.000034     0.088534   110.985315
	   84 B(20,19,21)     =    107.498598     0.000015    -0.242310   107.256287
	   85 B(22,18,23)     =    107.319674    -0.000002    -0.006404   107.313270
	   86 B(24,17,27)     =    106.911517    -0.000037    -0.300856   106.610662
	   87 B(25,1,26)      =    108.710995     0.000000    -0.031863   108.679132
	   88 D(1,2,3,4)      =    -57.272844     0.000032     9.756350   -47.516495
	   89 D(1,2,3,8)      =    117.517468     0.000033     9.913476   127.430944
	   90 D(1,2,14,15)    =   -173.776582    -0.000007    -0.506493  -174.283076
	   91 D(1,2,14,16)    =     -6.459575    -0.000054    -4.237652   -10.697227
	   92 D(1,2,14,17)    =     87.142921    -0.000031    -2.084506    85.058416
	   93 D(1,2,17,14)    =   -118.061697     0.000011    -0.649364  -118.711061
	   94 D(1,2,17,18)    =     -2.022486     0.000007    -0.850464    -2.872951
	   95 D(1,2,17,24)    =    112.402994     0.000015    -0.336166   112.066828
	   96 D(1,2,17,27)    =   -136.361701     0.000007    -0.548675  -136.910376
	   97 D(1,19,18,17)   =    -47.378270    -0.000012     0.708828   -46.669442
	   98 D(1,19,18,22)   =   -166.857330    -0.000010     0.899369  -165.957961
	   99 D(1,19,18,23)   =     72.595347    -0.000008     1.009883    73.605229
	  100 D(2,1,19,18)    =     45.513211     0.000014    -1.325567    44.187644
	  101 D(2,1,19,20)    =    -72.538539    -0.000003    -2.015201   -74.553740
	  102 D(2,1,19,21)    =    167.897757     0.000001    -1.353489   166.544268
	  103 D(2,3,4,5)      =    176.385023    -0.000001     0.014804   176.399827
	  104 D(2,3,4,13)     =     -4.678658     0.000000     0.107676    -4.570982
	  105 D(2,3,8,7)      =   -175.453243    -0.000001     0.056621  -175.396622
	  106 D(2,3,8,9)      =      3.018754     0.000001     0.300928     3.319682
	  107 D(2,14,17,18)   =    -77.090361     0.000012     0.095073   -76.995288
	  108 D(2,14,17,24)   =     58.017029     0.000004     0.363735    58.380764
	  109 D(2,14,17,27)   =    166.529176    -0.000003    -0.009469   166.519707
	  110 D(2,17,14,15)   =   -117.031849    -0.000007    -0.244164  -117.276013
	  111 D(2,17,14,16)   =    118.702309     0.000000    -0.248878   118.453431
	  112 D(2,17,18,19)   =     28.724119    -0.000006    -0.195014    28.529105
	  113 D(2,17,18,22)   =    151.193933    -0.000002    -0.467146   150.726787
	  114 D(2,17,18,23)   =    -92.035326    -0.000000    -0.463589   -92.498916
	  115 D(3,2,1,19)     =     98.613044     0.000027     1.736323   100.349368
	  116 D(3,2,1,25)     =    -25.469934     0.000017     2.364232   -23.105703
	  117 D(3,2,1,26)     =   -143.898017     0.000012     2.488567  -141.409451
	  118 D(3,2,14,15)    =     -3.695990     0.000033     2.297885    -1.398105
	  119 D(3,2,14,16)    =    163.621017    -0.000014    -1.433274   162.187743
	  120 D(3,2,14,17)    =   -102.776486     0.000009     0.719873  -102.056614
	  121 D(3,2,17,14)    =    113.669036    -0.000000    -0.643316   113.025720
	  122 D(3,2,17,18)    =   -130.291754    -0.000004    -0.844416  -131.136170
	  123 D(3,2,17,24)    =    -15.866273     0.000004    -0.330118   -16.196391
	  124 D(3,2,17,27)    =     95.369032    -0.000004    -0.542627    94.826405
	  125 D(3,4,5,6)      =     -1.670791    -0.000000    -0.020123    -1.690914
	  126 D(3,4,5,12)     =    178.841893    -0.000000    -0.042981   178.798912
	  127 D(3,8,7,6)      =     -0.667894    -0.000001    -0.149728    -0.817622
	  128 D(3,8,7,10)     =    179.411012     0.000000     0.033076   179.444088
	  129 D(4,3,2,14)     =    132.654914    -0.000008     6.938753   139.593667
	  130 D(4,3,2,17)     =     59.937334     0.000054     9.508320    69.445654
	  131 D(4,3,8,7)      =     -0.540328     0.000001     0.197616    -0.342711
	  132 D(4,3,8,9)      =    177.931670     0.000003     0.441923   178.373593
	  133 D(4,5,6,7)      =      0.464814     0.000001     0.073968     0.538782
	  134 D(4,5,6,11)     =   -179.326487    -0.000000    -0.070340  -179.396827
	  135 D(5,4,3,8)      =      1.707588    -0.000000    -0.108382     1.599207
	  136 D(5,6,7,8)      =      0.710561     0.000000     0.017475     0.728036
	  137 D(5,6,7,10)     =   -179.369012    -0.000001    -0.167670  -179.536682
	  138 D(6,5,4,13)     =    179.372709    -0.000001    -0.113708   179.259001
	  139 D(6,7,8,9)      =   -179.155045    -0.000003    -0.394286  -179.549331
	  140 D(7,6,5,12)     =    179.948281     0.000001     0.095461   180.043742
	  141 D(8,3,2,14)     =    -52.554774    -0.000007     7.095879   -45.458894
	  142 D(8,3,2,17)     =   -125.272353     0.000055     9.665446  -115.606907
	  143 D(8,3,4,13)     =   -179.356093     0.000000    -0.015510  -179.371603
	  144 D(8,7,6,11)     =   -179.498262     0.000001     0.161949  -179.336313
	  145 D(9,8,7,10)     =      0.923861    -0.000001    -0.211482     0.712379
	  146 D(10,7,6,11)    =      0.422164    -0.000000    -0.023196     0.398969
	  147 D(11,6,5,12)    =      0.156980    -0.000000    -0.048847     0.108133
	  148 D(12,5,4,13)    =     -0.114607    -0.000001    -0.136566    -0.251173
	  149 D(14,2,1,19)    =    -91.256783     0.000069     4.524015   -86.732767
	  150 D(14,2,1,25)    =    144.660239     0.000059     5.151924   149.812162
	  151 D(14,2,1,26)    =     26.232156     0.000054     5.276259    31.508414
	  152 D(14,2,17,18)   =    116.039211    -0.000003    -0.201100   115.838110
	  153 D(14,2,17,24)   =   -129.535309     0.000004     0.313198  -129.222111
	  154 D(14,2,17,27)   =    -18.300004    -0.000004     0.100689   -18.199315
	  155 D(14,17,18,19)  =     71.932791    -0.000019    -0.572891    71.359900
	  156 D(14,17,18,22)  =   -165.597395    -0.000014    -0.845023  -166.442418
	  157 D(14,17,18,23)  =    -48.826654    -0.000013    -0.841466   -49.668120
	  158 D(15,14,2,17)   =     99.080496     0.000023     1.578012   100.658508
	  159 D(15,14,17,18)  =    165.877789     0.000005    -0.149091   165.728698
	  160 D(15,14,17,24)  =    -59.014821    -0.000004     0.119571   -58.895249
	  161 D(15,14,17,27)  =     49.497327    -0.000010    -0.253633    49.243694
	  162 D(16,14,2,17)   =    -93.602497    -0.000023    -2.153147   -95.755643
	  163 D(16,14,17,18)  =     41.611948     0.000012    -0.153805    41.458143
	  164 D(16,14,17,24)  =    176.719338     0.000004     0.114857   176.834195
	  165 D(16,14,17,27)  =    -74.768515    -0.000003    -0.258347   -75.026862
	  166 D(17,2,1,19)    =    -25.097033    -0.000006     1.595318   -23.501715
	  167 D(17,2,1,25)    =   -149.180012    -0.000016     2.223226  -146.956785
	  168 D(17,2,1,26)    =     92.391905    -0.000021     2.347561    94.739467
	  169 D(17,18,19,20)  =     70.967813     0.000001     1.320946    72.288759
	  170 D(17,18,19,21)  =   -168.692556     0.000000     0.762632  -167.929923
	  171 D(18,19,1,25)   =    166.970388     0.000010    -1.689242   165.281146
	  172 D(18,19,1,26)   =    -71.687402     0.000010    -1.871918   -73.559319
	  173 D(19,18,17,24)  =    -63.287872    -0.000006    -0.591071   -63.878943
	  174 D(19,18,17,27)  =    173.213603    -0.000012    -0.712103   172.501500
	  175 D(20,19,1,25)   =     48.918637    -0.000007    -2.378875    46.539762
	  176 D(20,19,1,26)   =    170.260848    -0.000007    -2.561551   167.699297
	  177 D(20,19,18,22)  =    -48.511246     0.000003     1.511487   -46.999760
	  178 D(20,19,18,23)  =   -169.058570     0.000005     1.622000  -167.436570
	  179 D(21,19,1,25)   =    -70.645066    -0.000003    -1.717163   -72.362229
	  180 D(21,19,1,26)   =     50.697145    -0.000003    -1.899839    48.797305
	  181 D(21,19,18,22)  =     71.828385     0.000003     0.953173    72.781558
	  182 D(21,19,18,23)  =    -48.718938     0.000004     1.063687   -47.655252
	  183 D(22,18,17,24)  =     59.181943    -0.000001    -0.863203    58.318740
	  184 D(22,18,17,27)  =    -64.316582    -0.000007    -0.984235   -65.300817
	  185 D(23,18,17,24)  =    175.952683     0.000000    -0.859646   175.093037
	  186 D(23,18,17,27)  =     52.454158    -0.000006    -0.980678    51.473480
	  187 R(4,19)         =      3.589648     0.003308     0.020051     3.609699
	 ---------------------------------------------------------------------------
	Successfully symmetrized geometry.

  ==> Convergence Check <==

  Measures of convergence in internal coordinates in au.
  Criteria marked as inactive (o), active & met (*), and active & unmet ( ).
  --------------------------------------------------------------------------------------------- ~
   Step     Total Energy     Delta E     MAX Force     RMS Force      MAX Disp      RMS Disp    ~
  --------------------------------------------------------------------------------------------- ~
    Convergence Criteria    1.00e-06 *    3.00e-04 *             o    1.20e-03 *             o  ~
  --------------------------------------------------------------------------------------------- ~
      1    -464.64096292   -4.65e+02      6.62e-03      1.15e-03 o    1.73e-01      3.44e-02 o  ~
  ---------------------------------------------------------------------------------------------

	Writing optimization data to binary file.
	Structure for next step:
	Cartesian Geometry (in Angstrom)
	    C     1.5894750600   1.3016953654   0.5337373156
	    C     0.6348683041   0.6568674762  -0.4662733261
	    C    -0.6678462635   0.1021239558   0.0068029906
	    C    -0.7636671001  -0.7403495434   1.1421878921
	    C    -2.0233950186  -1.1675881876   1.5807990633
	    C    -3.1926179410  -0.7309247634   0.9153558304
	    C    -3.1005177857   0.1259507125  -0.1981573270
	    C    -1.8395130839   0.5373147412  -0.6602075763
	    H    -1.7741980285   1.2128957608  -1.5261626303
	    H    -4.0069665959   0.4742513516  -0.7142229457
	    H    -4.1747738302  -1.0597548112   1.2681366259
	    H    -2.0937956999  -1.8362436236   2.4486468633
	    H     0.1343825576  -1.0800389688   1.6791138078
	    C     0.9166757602   0.7212996055  -1.8398496728
	    H     0.1898452039   0.3431456211  -2.5670180699
	    H     1.7137980944   1.3730349694  -2.2131027806
	    C     1.8261664777  -0.7037417821  -1.2235139574
	    C     3.1020429922  -0.3490860702  -0.4644755577
	    C     2.6926989098   0.2671790775   0.8807561283
	    H     2.2913742145  -0.5146694467   1.5502600475
	    H     3.5346424595   0.7455687382   1.4050585676
	    H     3.7000714270  -1.2707297960  -0.3481052545
	    H     3.7050676624   0.3614097493  -1.0580495217
	    H     1.2023495672  -1.4725094260  -0.7456759568
	    H     1.0188498651   1.6394463514   1.4165165042
	    H     2.0552218430   2.1834054447   0.0542592612
	    H     1.9959087803  -1.0364559298  -2.2646409575
			--------------------------
			 OPTKING Finished Execution 
			--------------------------

    Structure for next step:
    Molecular point group: c1
    Full point group: C1

    Geometry (in Angstrom), charge = 1, multiplicity = 1:

    C            1.591621313815     1.299733711089     0.528343074159
    C            0.637014554142     0.654905819343    -0.471667571499
    C           -0.665700018550     0.100162296798     0.001408747084
    C           -0.761520855532    -0.742311205722     1.136793652994
    C           -2.021248778933    -1.169549851657     1.575404825961
    C           -3.190471706003    -0.732886425695     0.909961590468
    C           -3.098371550340     0.123989053580    -0.203551571376
    C           -1.837366843509     0.535353083849    -0.665601822488
    H           -1.772051787860     1.210934106157    -1.531556879892
    H           -4.004820364051     0.472289694056    -0.719617192089
    H           -4.172627598989    -1.061716474830     1.262742387294
    H           -2.091649460590    -1.838205290282     2.443252629394
    H            0.136528805653    -1.082000632488     1.673719570836
    C            0.918822011398     0.719337948887    -1.845243923642
    H            0.191991452204     0.341183962971    -2.572412323590
    H            1.715944348697     1.371073315357    -2.218497032910
    C            1.828312732423    -0.705703444309    -1.228908205800
    C            3.104189251966    -0.351047731050    -0.469869803040
    C            2.694845168001     0.265217419087     0.875361888206
    H            2.293520471053    -0.516631108195     1.544865810068
    H            3.536788720916     0.743607081649     1.399664329596
    H            3.702217689146    -1.272691460454    -0.353499499419
    H            3.707213924580     0.359448091238    -1.063443769441
    H            1.204495819513    -1.474471091290    -0.751070203329
    H            1.020996116662     1.637484698381     1.411122266168
    H            2.057368098693     2.181443793819     0.048865017864
    H            1.998055035709    -1.038417593350    -2.270035209960


Scratch directory: /scratch1/maxbuskirk/
gradient() will perform analytic gradient computation.

*** tstart() called on skylm002.palmetto.clemson.edu
*** at Thu Feb 17 20:29:15 2022

   => Loading Basis Set <=

    Name: CC-PVDZ
    Role: ORBITAL
    Keyword: BASIS
    atoms 1-8, 14, 17-19     entry C          line   138 file /home/maxbuskirk/.conda/envs/psifour/share/psi4/basis/cc-pvdz.gbs 
    atoms 9-13, 15-16, 20-27 entry H          line    22 file /home/maxbuskirk/.conda/envs/psifour/share/psi4/basis/cc-pvdz.gbs 


         ---------------------------------------------------------
                                   SCF
               by Justin Turney, Rob Parrish, Andy Simmonett
                          and Daniel G. A. Smith
                              RHF Reference
                        1 Threads,  59127 MiB Core
         ---------------------------------------------------------

  ==> Geometry <==

    Molecular point group: c1
    Full point group: C1

    Geometry (in Angstrom), charge = 1, multiplicity = 1:

       Center              X                  Y                   Z               Mass       
    ------------   -----------------  -----------------  -----------------  -----------------
         C            1.591621313815     1.299733711089     0.528343074159    12.000000000000
         C            0.637014554142     0.654905819343    -0.471667571499    12.000000000000
         C           -0.665700018550     0.100162296798     0.001408747084    12.000000000000
         C           -0.761520855532    -0.742311205722     1.136793652994    12.000000000000
         C           -2.021248778933    -1.169549851657     1.575404825961    12.000000000000
         C           -3.190471706003    -0.732886425695     0.909961590468    12.000000000000
         C           -3.098371550340     0.123989053580    -0.203551571376    12.000000000000
         C           -1.837366843509     0.535353083849    -0.665601822488    12.000000000000
         H           -1.772051787860     1.210934106157    -1.531556879892     1.007825032230
         H           -4.004820364051     0.472289694056    -0.719617192089     1.007825032230
         H           -4.172627598989    -1.061716474830     1.262742387294     1.007825032230
         H           -2.091649460590    -1.838205290282     2.443252629394     1.007825032230
         H            0.136528805653    -1.082000632488     1.673719570836     1.007825032230
         C            0.918822011398     0.719337948887    -1.845243923642    12.000000000000
         H            0.191991452204     0.341183962971    -2.572412323590     1.007825032230
         H            1.715944348697     1.371073315357    -2.218497032910     1.007825032230
         C            1.828312732423    -0.705703444309    -1.228908205800    12.000000000000
         C            3.104189251966    -0.351047731050    -0.469869803040    12.000000000000
         C            2.694845168001     0.265217419087     0.875361888206    12.000000000000
         H            2.293520471053    -0.516631108195     1.544865810068     1.007825032230
         H            3.536788720916     0.743607081649     1.399664329596     1.007825032230
         H            3.702217689146    -1.272691460454    -0.353499499419     1.007825032230
         H            3.707213924580     0.359448091238    -1.063443769441     1.007825032230
         H            1.204495819513    -1.474471091290    -0.751070203329     1.007825032230
         H            1.020996116662     1.637484698381     1.411122266168     1.007825032230
         H            2.057368098693     2.181443793819     0.048865017864     1.007825032230
         H            1.998055035709    -1.038417593350    -2.270035209960     1.007825032230

  Running in c1 symmetry.

  Rotational constants: A =      0.06878  B =      0.02037  C =      0.01816 [cm^-1]
  Rotational constants: A =   2062.04556  B =    610.76594  C =    544.50216 [MHz]
  Nuclear repulsion =  676.168824339866433

  Charge       = 1
  Multiplicity = 1
  Electrons    = 86
  Nalpha       = 43
  Nbeta        = 43

  ==> Algorithm <==

  SCF Algorithm Type is DF.
  DIIS enabled.
  MOM disabled.
  Fractional occupation disabled.
  Guess Type is READ.
  Energy threshold   = 1.00e-10
  Density threshold  = 1.00e-10
  Integral threshold = 1.00e-12

  ==> Primary Basis <==

  Basis Set: CC-PVDZ
    Blend: CC-PVDZ
    Number of shells: 117
    Number of basis functions: 243
    Number of Cartesian functions: 255
    Spherical Harmonics?: true
    Max angular momentum: 2

   => Loading Basis Set <=

    Name: (CC-PVDZ AUX)
    Role: JKFIT
    Keyword: DF_BASIS_SCF
    atoms 1-8, 14, 17-19     entry C          line   121 file /home/maxbuskirk/.conda/envs/psifour/share/psi4/basis/cc-pvdz-jkfit.gbs 
    atoms 9-13, 15-16, 20-27 entry H          line    51 file /home/maxbuskirk/.conda/envs/psifour/share/psi4/basis/cc-pvdz-jkfit.gbs 

   => Loading Basis Set <=

    Name: CC-PVDZ
    Role: ORBITAL
    Keyword: BASIS
    atoms 1-8, 14, 17-19     entry C          line   138 file /home/maxbuskirk/.conda/envs/psifour/share/psi4/basis/cc-pvdz.gbs 
    atoms 9-13, 15-16, 20-27 entry H          line    22 file /home/maxbuskirk/.conda/envs/psifour/share/psi4/basis/cc-pvdz.gbs 

  Reading orbitals from file /scratch1/maxbuskirk/1H.mol.3698877.180.npy, no projection.

  ==> Integral Setup <==

  DFHelper Memory: AOs need 0.499 GiB; user supplied 43.306 GiB. Using in-core AOs.

  ==> MemDFJK: Density-Fitted J/K Matrices <==

    J tasked:                   Yes
    K tasked:                   Yes
    wK tasked:                   No
    OpenMP threads:               1
    Memory [MiB]:             44345
    Algorithm:                 Core
    Schwarz Cutoff:           1E-12
    Mask sparsity (%):       8.1627
    Fitting Condition:        1E-10

   => Auxiliary Basis Set <=

  Basis Set: (CC-PVDZ AUX)
    Blend: CC-PVDZ-JKFIT
    Number of shells: 423
    Number of basis functions: 1185
    Number of Cartesian functions: 1347
    Spherical Harmonics?: true
    Max angular momentum: 3

  Minimum eigenvalue in the overlap matrix is 3.4482733303E-04.
  Reciprocal condition number of the overlap matrix is 4.9314639047E-05.
    Using symmetric orthogonalization.

  ==> Pre-Iterations <==

  SCF Guess: Orbitals guess was supplied from a previous computation.

   -------------------------------------------------------
    Irrep   Nso     Nmo     Nalpha   Nbeta   Ndocc  Nsocc
   -------------------------------------------------------
     A        243     243      43      43      43       0
   -------------------------------------------------------
    Total     243     243      43      43      43       0
   -------------------------------------------------------

  ==> Iterations <==

[...]
         C           -3.056636751290    -0.563169982309     1.374039612266    12.000000000000
         C           -2.896957861540     0.749798490911     0.901388851834    12.000000000000
         C           -1.696129167644     1.124280650146     0.282074050056    12.000000000000
         H           -1.582171994926     2.145428939390    -0.098957822818     1.007825032230
         H           -3.699240119341     1.486855863557     1.002408018375     1.007825032230
         H           -3.997884598343    -0.852536935976     1.850171607255     1.007825032230
         H           -2.144883629333    -2.527422540053     1.600079865942     1.007825032230
         H           -0.007038928272    -1.881532511718     0.543462473772     1.007825032230
         C            0.761892954366     0.601420294833    -1.909685654248    12.000000000000
         H           -0.124988475224     0.331161031701    -2.494161976471     1.007825032230
         H            1.409466588422     1.359495271070    -2.368963770988     1.007825032230
         C            1.688714610352    -0.763394240928    -1.740956195932    12.000000000000
         C            2.968669702095    -0.543082366160    -0.939572003837    12.000000000000
         C            2.679012407788    -0.000044716625     0.465979162633    12.000000000000
         H            2.210924788078    -0.775994854379     1.097680667875     1.007825032230
         H            3.591023830964     0.340120524626     0.981288272568     1.007825032230
         H            3.503570741119    -1.506963029877    -0.872827983618     1.007825032230
         H            3.624034138980     0.153806344535    -1.492242220652     1.007825032230
         H            1.056868657880    -1.597586288922    -1.401280046609     1.007825032230
         H            1.338432114903     1.536905376665     1.319979106339     1.007825032230
         H            2.210707230028     2.043663755136    -0.184774862282     1.007825032230
         H            1.906238142524    -0.930367748473    -2.811349356833     1.007825032230

  Running in c1 symmetry.

  Rotational constants: A =      0.06856  B =      0.01956  C =      0.01865 [cm^-1]
  Rotational constants: A =   2055.22959  B =    586.53798  C =    559.02723 [MHz]
  Nuclear repulsion =  674.536782137060413

  Charge       = 1
  Multiplicity = 1
  Electrons    = 86
  Nalpha       = 43
  Nbeta        = 43

  ==> Algorithm <==

  SCF Algorithm Type is DF.
  DIIS enabled.
  MOM disabled.
  Fractional occupation disabled.
  Guess Type is READ.
  Energy threshold   = 1.00e-10
  Density threshold  = 1.00e-10
  Integral threshold = 1.00e-12

  ==> Primary Basis <==

  Basis Set: CC-PVDZ
    Blend: CC-PVDZ
    Number of shells: 117
    Number of basis functions: 243
    Number of Cartesian functions: 255
    Spherical Harmonics?: true
    Max angular momentum: 2

   => Loading Basis Set <=

    Name: (CC-PVDZ AUX)
    Role: JKFIT
    Keyword: DF_BASIS_SCF
    atoms 1-8, 14, 17-19     entry C          line   121 file /home/maxbuskirk/.conda/envs/psifour/share/psi4/basis/cc-pvdz-jkfit.gbs 
    atoms 9-13, 15-16, 20-27 entry H          line    51 file /home/maxbuskirk/.conda/envs/psifour/share/psi4/basis/cc-pvdz-jkfit.gbs 

   => Loading Basis Set <=

    Name: CC-PVDZ
    Role: ORBITAL
    Keyword: BASIS
    atoms 1-8, 14, 17-19     entry C          line   138 file /home/maxbuskirk/.conda/envs/psifour/share/psi4/basis/cc-pvdz.gbs 
    atoms 9-13, 15-16, 20-27 entry H          line    22 file /home/maxbuskirk/.conda/envs/psifour/share/psi4/basis/cc-pvdz.gbs 

  Reading orbitals from file /scratch1/maxbuskirk/1H.mol.3698877.180.npy, no projection.

  ==> Integral Setup <==

  DFHelper Memory: AOs need 0.498 GiB; user supplied 43.306 GiB. Using in-core AOs.

  ==> MemDFJK: Density-Fitted J/K Matrices <==

    J tasked:                   Yes
    K tasked:                   Yes
    wK tasked:                   No
    OpenMP threads:               1
    Memory [MiB]:             44345
    Algorithm:                 Core
    Schwarz Cutoff:           1E-12
    Mask sparsity (%):       8.2677
    Fitting Condition:        1E-10

   => Auxiliary Basis Set <=

  Basis Set: (CC-PVDZ AUX)
    Blend: CC-PVDZ-JKFIT
    Number of shells: 423
    Number of basis functions: 1185
    Number of Cartesian functions: 1347
    Spherical Harmonics?: true
    Max angular momentum: 3

  Minimum eigenvalue in the overlap matrix is 3.4575521680E-04.
  Reciprocal condition number of the overlap matrix is 5.0049088002E-05.
    Using symmetric orthogonalization.

  ==> Pre-Iterations <==

  SCF Guess: Orbitals guess was supplied from a previous computation.

   -------------------------------------------------------
    Irrep   Nso     Nmo     Nalpha   Nbeta   Ndocc  Nsocc
   -------------------------------------------------------
     A        243     243      43      43      43       0
   -------------------------------------------------------
    Total     243     243      43      43      43       0
   -------------------------------------------------------

  ==> Iterations <==

                           Total Energy        Delta E     RMS |[F,P]|

   @DF-RHF iter   0:  -462.83632190611650   -4.62836e+02   1.82128e-03 
   @DF-RHF iter   1:  -462.91241316694214   -7.60913e-02   3.14623e-04 DIIS
   @DF-RHF iter   2:  -462.91871518953508   -6.30202e-03   1.35362e-04 DIIS
   @DF-RHF iter   3:  -462.91984501735845   -1.12983e-03   6.07584e-05 DIIS
   @DF-RHF iter   4:  -462.92018437977708   -3.39362e-04   1.33418e-05 DIIS
   @DF-RHF iter   5:  -462.92020290818175   -1.85284e-05   5.67649e-06 DIIS
   @DF-RHF iter   6:  -462.92020612174719   -3.21357e-06   2.05079e-06 DIIS
   @DF-RHF iter   7:  -462.92020652306314   -4.01316e-07   8.24306e-07 DIIS
   @DF-RHF iter   8:  -462.92020659692537   -7.38622e-08   3.91142e-07 DIIS
   @DF-RHF iter   9:  -462.92020661304065   -1.61153e-08   1.05562e-07 DIIS
   @DF-RHF iter  10:  -462.92020661462766   -1.58701e-09   3.48689e-08 DIIS
   @DF-RHF iter  11:  -462.92020661475613   -1.28466e-10   1.51371e-08 DIIS
   @DF-RHF iter  12:  -462.92020661478688   -3.07523e-11   6.35593e-09 DIIS
   @DF-RHF iter  13:  -462.92020661479398   -7.10543e-12   2.81264e-09 DIIS
   @DF-RHF iter  14:  -462.92020661479586   -1.87583e-12   1.30503e-09 DIIS
   @DF-RHF iter  15:  -462.92020661479819   -2.33058e-12   4.88674e-10 DIIS
   @DF-RHF iter  16:  -462.92020661479575    2.44427e-12   1.67896e-10 DIIS
   @DF-RHF iter  17:  -462.92020661479626   -5.11591e-13   7.96252e-11 DIIS
  Energy and wave function converged.


  ==> Post-Iterations <==

    Orbital Energies [Eh]
    ---------------------

    Doubly Occupied:                                                      

       1A    -11.531914     2A    -11.433537     3A    -11.432072  
       4A    -11.418581     5A    -11.417920     6A    -11.406610  
       7A    -11.400900     8A    -11.398833     9A    -11.393988  
      10A    -11.383987    11A    -11.383836    12A    -11.379771  
      13A     -1.353440    14A     -1.289342    15A     -1.211610  
      16A     -1.194540    17A     -1.159568    18A     -1.149241  
      19A     -1.026122    20A     -1.013453    21A     -0.974045  
      22A     -0.958487    23A     -0.912375    24A     -0.855526  
      25A     -0.815363    26A     -0.812395    27A     -0.790895  
      28A     -0.775069    29A     -0.756138    30A     -0.750056  
      31A     -0.736660    32A     -0.729930    33A     -0.710844  
      34A     -0.693240    35A     -0.661553    36A     -0.649285  
      37A     -0.644799    38A     -0.640471    39A     -0.632877  
      40A     -0.628009    41A     -0.617843    42A     -0.479034  
      43A     -0.476624  

    Virtual:                                                              

      44A     -0.116083    45A     -0.019158    46A     -0.014198  
      47A      0.029835    48A      0.043506    49A      0.065118  
      50A      0.071622    51A      0.072037    52A      0.092862  
      53A      0.105191    54A      0.107449    55A      0.111644  
      56A      0.118704    57A      0.130903    58A      0.132706  
      59A      0.149675    60A      0.153030    61A      0.164743  
      62A      0.186176    63A      0.204028    64A      0.214750  
      65A      0.218614    66A      0.238670    67A      0.274457  
      68A      0.292961    69A      0.296917    70A      0.305430  
      71A      0.318696    72A      0.343812    73A      0.351679  
      74A      0.406919    75A      0.434746    76A      0.450212  
      77A      0.465160    78A      0.474692    79A      0.477330  
      80A      0.496637    81A      0.502768    82A      0.528397  
      83A      0.541662    84A      0.556594    85A      0.557783  
      86A      0.574030    87A      0.590271    88A      0.591849  
      89A      0.600045    90A      0.601462    91A      0.631662  
      92A      0.633743    93A      0.638008    94A      0.655446  
      95A      0.667860    96A      0.671933    97A      0.681616  
      98A      0.695389    99A      0.701637   100A      0.710845  
     101A      0.713231   102A      0.721761   103A      0.722291  
     104A      0.728100   105A      0.731570   106A      0.737350  
     107A      0.738492   108A      0.753023   109A      0.763900  
     110A      0.770571   111A      0.780124   112A      0.785148  
     113A      0.788000   114A      0.794508   115A      0.813788  
     116A      0.820231   117A      0.838776   118A      0.851985  
     119A      0.911230   120A      0.930725   121A      0.957819  
     122A      0.978155   123A      0.994586   124A      0.998982  
     125A      1.007536   126A      1.018234   127A      1.030396  
     128A      1.042337   129A      1.075607   130A      1.096131  
     131A      1.120760   132A      1.128636   133A      1.142486  
     134A      1.144290   135A      1.158047   136A      1.171205  
     137A      1.203207   138A      1.223067   139A      1.248214  
     140A      1.257926   141A      1.291864   142A      1.306440  
     143A      1.317653   144A      1.321199   145A      1.345589  
     146A      1.391008   147A      1.418373   148A      1.471129  
     149A      1.510606   150A      1.516937   151A      1.532230  
     152A      1.572244   153A      1.589258   154A      1.591980  
     155A      1.617386   156A      1.621417   157A      1.625373  
     158A      1.652961   159A      1.661485   160A      1.676988  
     161A      1.691367   162A      1.709797   163A      1.714402  
     164A      1.717698   165A      1.730761   166A      1.732758  
     167A      1.738450   168A      1.743951   169A      1.752888  
     170A      1.761230   171A      1.770870   172A      1.776723  
     173A      1.780573   174A      1.789324   175A      1.794562  
     176A      1.805414   177A      1.811828   178A      1.827231  
     179A      1.829032   180A      1.850744   181A      1.856365  
     182A      1.864872   183A      1.871831   184A      1.878232  
     185A      1.886215   186A      1.910258   187A      1.928529  
     188A      1.929617   189A      1.937001   190A      1.963793  
     191A      1.978250   192A      1.998930   193A      2.004823  
     194A      2.008560   195A      2.014953   196A      2.027086  
     197A      2.045361   198A      2.064373   199A      2.088798  
     200A      2.095529   201A      2.112300   202A      2.115897  
     203A      2.141677   204A      2.166388   205A      2.171793  
     206A      2.190725   207A      2.209185   208A      2.228618  
     209A      2.233103   210A      2.245253   211A      2.298901  
     212A      2.317274   213A      2.338069   214A      2.348839  
     215A      2.357190   216A      2.366029   217A      2.392969  
     218A      2.438976   219A      2.475409   220A      2.486434  
     221A      2.548194   222A      2.577857   223A      2.594418  
     224A      2.603950   225A      2.609470   226A      2.613798  
     227A      2.622303   228A      2.643642   229A      2.654339  
     230A      2.701648   231A      2.730149   232A      2.740955  
     233A      2.786237   234A      2.796561   235A      2.824074  
     236A      2.869610   237A      2.871486   238A      2.928839  
     239A      2.941273   240A      2.967189   241A      3.023925  
     242A      3.092752   243A      3.762121  

    Final Occupation by Irrep:
              A 
    DOCC [    43 ]

  @DF-RHF Final Energy:  -462.92020661479626

   => Energetics <=

    Nuclear Repulsion Energy =            674.5367821370604133
    One-Electron Energy =               -1948.7524132582839229
    Two-Electron Energy =                 811.2954245064271390
    Total Energy =                       -462.9202066147962569

Computation Completed


Properties will be evaluated at   0.000000,   0.000000,   0.000000 [a0]

Properties computed using the SCF density matrix

  Nuclear Dipole Moment: [e a0]
     X:     8.7138      Y:    -0.6328      Z:    -3.1213

  Electronic Dipole Moment: [e a0]
     X:    -7.5626      Y:     0.9876      Z:     2.3295

  Dipole Moment: [e a0]
     X:     1.1512      Y:     0.3548      Z:    -0.7918     Total:     1.4416

  Dipole Moment: [D]
     X:     2.9261      Y:     0.9018      Z:    -2.0126     Total:     3.6641


*** tstop() called on skylm002.palmetto.clemson.edu at Sun Feb 20 02:01:03 2022
Module time:
	user time   =      14.41 seconds =       0.24 minutes
	system time =       0.70 seconds =       0.01 minutes
	total time  =         16 seconds =       0.27 minutes
Total time:
	user time   =  129152.84 seconds =    2152.55 minutes
	system time =   28892.79 seconds =     481.55 minutes
	total time  =     211210 seconds =    3520.17 minutes
 MINTS: Wrapper to libmints.
   by Justin Turney

   Calculation information:
      Number of threads:                 1
      Number of atoms:                  27
      Number of AO shells:             117
      Number of SO shells:             117
      Number of primitives:            339
      Number of atomic orbitals:       255
      Number of basis functions:       243

      Number of irreps:                  1
      Integral cutoff                 1.00e-12
      Number of functions per irrep: [ 243 ]

 OEINTS: Overlap, kinetic, potential, dipole, and quadrupole integrals
         stored in file 35.

      Computing two-electron integrals...done
      Computed 306660546 non-zero two-electron integrals.
        Stored in file 33.


*** tstart() called on skylm002.palmetto.clemson.edu
*** at Sun Feb 20 02:05:14 2022


	Wfn Parameters:
	--------------------
	Wavefunction         = CCSD
	Number of irreps     = 1
	Number of MOs        = 243
	Number of active MOs = 243
	AO-Basis             = NONE
	Semicanonical        = false
	Reference            = RHF
	Print Level          = 1

	IRREP	# MOs	# FZDC	# DOCC	# SOCC	# VIRT	# FZVR
	-----	-----	------	------	------	------	------
	 A	   243	    0	    43	    0	    200	    0
	Transforming integrals...
	IWL integrals will be deleted.
	(OO|OO)...
	Presorting SO-basis two-electron integrals.
	Sorting File: SO Ints (nn|nn) nbuckets = 1
	Constructing frozen core operators
	Starting first half-transformation.
	Sorting half-transformed integrals.
	First half integral transformation complete.
	Starting second half-transformation.
	Two-electron integral transformation complete.
	(OO|OV)...
	Starting second half-transformation.
	Two-electron integral transformation complete.
	(OO|VV)...
	Starting second half-transformation.
	Two-electron integral transformation complete.
	(OV|OO)...
	Starting first half-transformation.
	Sorting half-transformed integrals.
	First half integral transformation complete.
	Starting second half-transformation.
	Two-electron integral transformation complete.
	(OV|OV)...
	Starting second half-transformation.
	Two-electron integral transformation complete.
	(OV|VV)...
	Starting second half-transformation.
	Two-electron integral transformation complete.
	(VV|OO)...
	Starting first half-transformation.
	Sorting half-transformed integrals.
	First half integral transformation complete.
	Starting second half-transformation.
	Two-electron integral transformation complete.
	(VV|OV)...
	Starting second half-transformation.
	Two-electron integral transformation complete.
	(VV|VV)...
	Starting second half-transformation.
	Two-electron integral transformation complete.
	Frozen core energy     =      0.00000000000000

	Size of irrep 0 of <ab|cd> integrals:   1600.000 (MW) /  12800.000 (MB)
	Total:                                  1600.000 (MW) /  12800.000 (MB)

	Size of irrep 0 of <ia|bc> integrals:    344.000 (MW) /   2752.000 (MB)
	Total:                                   344.000 (MW) /   2752.000 (MB)

	Size of irrep 0 of tijab amplitudes:      73.960 (MW) /    591.680 (MB)
	Total:                                    73.960 (MW) /    591.680 (MB)

	Nuclear Rep. energy          =    674.53678213706041
	SCF energy                   =   -462.92020661479626
	One-electron energy          =  -1948.75241326452851
	Two-electron energy          =    811.29482985101413
	Reference energy             =   -462.92080127645397

*** tstop() called on skylm002.palmetto.clemson.edu at Sun Feb 20 02:14:10 2022
Module time:
	user time   =     209.79 seconds =       3.50 minutes
	system time =     114.58 seconds =       1.91 minutes
	total time  =        536 seconds =       8.93 minutes
Total time:
	user time   =  129524.15 seconds =    2158.74 minutes
	system time =   29016.08 seconds =     483.60 minutes
	total time  =     211997 seconds =    3533.28 minutes
            **************************
            *                        *
            *        CCENERGY        *
            *                        *
            **************************

    Nuclear Rep. energy (wfn)     =  674.536782137060413
    SCF energy          (wfn)     = -462.920206614796257
    Reference energy    (file100) = -462.920801276453972

    Input parameters:
    -----------------
    Wave function   =     CCSD
    Reference wfn   =     RHF
    Brueckner       =     No
    Memory (Mbytes) =     62000.0
    Maxiter         =     50
    R_Convergence   =     1.0e-07
    E_Convergence   =     1.0e-08
    Restart         =     Yes
    DIIS            =     Yes
    AO Basis        =     NONE
    ABCD            =     NEW
    Cache Level     =     2
    Cache Type      =     LOW
    Print Level     =     1
    Num. of threads =     1
    # Amps to Print =     10
    Print MP2 Amps? =     No
    Analyze T2 Amps =     No
    Print Pair Ener =     No
    Local CC        =     No
    SCS-MP2         =     False
    SCSN-MP2        =     False
    SCS-CCSD        =     False

    Using old T1 amplitudes.
    Using old T2 amplitudes.

MP2 correlation energy -1.6325356831105755
                Solving CC Amplitude Equations
                ------------------------------
  Iter             Energy              RMS        T1Diag      D1Diag    New D1Diag    D2Diag
  ----     ---------------------    ---------   ----------  ----------  ----------   --------
     0        -0.200612736423140    0.000e+00    0.010532    0.068868    0.068868    0.188896
     1        -1.652818428906340    8.689e-01    0.005736    0.040874    0.040874    0.201695
     2        -1.675707204593415    1.786e-01    0.008294    0.046350    0.046350    0.176199
     3        -1.717043399985392    5.627e-02    0.008469    0.045930    0.045930    0.184157
     4        -1.723861773321594    2.349e-02    0.009499    0.057522    0.057522    0.186229
     5        -1.725144116530688    1.066e-02    0.010251    0.065613    0.065613    0.187669
     6        -1.725704030519238    5.201e-03    0.010643    0.070470    0.070470    0.188628
     7        -1.725761099440598    2.339e-03    0.010857    0.073216    0.073216    0.188918
     8        -1.725625589994944    9.537e-04    0.010909    0.073910    0.073910    0.188862
     9        -1.725582092803396    4.334e-04    0.010926    0.074145    0.074145    0.188800
