
    -----------------------------------------------------------------------
          Psi4: An Open-Source Ab Initio Electronic Structure Package
                               Psi4 1.4 release

                         Git: Rev {HEAD} 9485035 


    D. G. A. Smith, L. A. Burns, A. C. Simmonett, R. M. Parrish,
    M. C. Schieber, R. Galvelis, P. Kraus, H. Kruse, R. Di Remigio,
    A. Alenaizan, A. M. James, S. Lehtola, J. P. Misiewicz, M. Scheurer,
    R. A. Shaw, J. B. Schriber, Y. Xie, Z. L. Glick, D. A. Sirianni,
    J. S. O'Brien, J. M. Waldrop, A. Kumar, E. G. Hohenstein,
    B. P. Pritchard, B. R. Brooks, H. F. Schaefer III, A. Yu. Sokolov,
    K. Patkowski, A. E. DePrince III, U. Bozkaya, R. A. King,
    F. A. Evangelista, J. M. Turney, T. D. Crawford, C. D. Sherrill,
    J. Chem. Phys. 152(18) 184108 (2020). https://doi.org/10.1063/5.0006002

                            Additional Code Authors
    E. T. Seidl, C. L. Janssen, E. F. Valeev, M. L. Leininger,
    J. F. Gonthier, R. M. Richard, H. R. McAlexander, M. Saitow, X. Wang,
    P. Verma, and M. H. Lechner

             Previous Authors, Complete List of Code Contributors,
                       and Citations for Specific Modules
    https://github.com/psi4/psi4/blob/master/codemeta.json
    https://github.com/psi4/psi4/graphs/contributors
    http://psicode.org/psi4manual/master/introduction.html#citing-psifour

    -----------------------------------------------------------------------


    Psi4 started on: Thursday, 17 February 2022 03:19PM

    Process ID: 3698697
    Host:       skylm002.palmetto.clemson.edu
    PSIDATADIR: /home/maxbuskirk/.conda/envs/psifour/share/psi4
    Memory:     500.0 MiB
    Threads:    1
    
  ==> Input File <==

--------------------------------------------------------------------------
memory 62 GB

molecule mol {
0 1
    C            2.117688306787     0.529647352484    -1.885736215187
    C            1.627120245726     0.457350942425    -0.452884821609
    C            2.425020033465     1.304978967704     0.563976051117
    C            3.620976205526     0.413865876508     0.970741008246
    C            3.947609063740    -0.421184202640    -0.290006031451
    C            2.594314698119    -0.599092458754    -0.989816677709
    C            0.187257391389     0.146163627291    -0.161733715149
    C           -0.154169598889    -0.750225326463     0.877285619922
    C           -1.486244160365    -1.022938309035     1.190091956250
    C           -2.528275607356    -0.402624784629     0.468050108494
    C           -2.210376695524     0.490890649581    -0.566229649246
    C           -0.858684645397     0.756027296121    -0.866265529277
    H           -0.623945627868     1.459738939898    -1.672171007488
    H           -2.989207575110     0.989609965978    -1.146678166093
    O           -3.795266690889    -0.744910831702     0.855762504549
    H           -1.752900268124    -1.720245053459     1.989647398903
    H            0.642711320083    -1.247338186824     1.442235415777
    H            2.228421985787    -1.607429268493    -1.209576468714
    H            1.406688008442     0.273324136568    -2.677821415718
    H            2.835646572925     1.316092203898    -2.147159168240
    H            4.406767142348    -1.391497094735    -0.035311063973
    H            4.661447338369     0.115007319053    -0.943455847393
    H            3.295152865224    -0.271357513209     1.776306838683
    H            4.484162477300     0.987486703536     1.352499872612
    H            1.799157848366     1.582427166454     1.428374455279
    H            2.774746620400     2.245060181221     0.096955971022
    C           -4.867971338275    -0.141113409617     0.153391850576
    H           -5.788464603568    -0.537531517980     0.605735004086
    H           -4.856504718645     0.959958806901     0.257924064197
    H           -4.850126854890    -0.401013075248    -0.921604408463
}

set scf_type df
set basis cc-pVDZ
set reference rhf

mol.update_geometry()
mol.symmetrize(1e-3)

e, wfn = optimize('CCSD', return_wfn=True)
oeprop(wfn, "MULLIKEN_CHARGES")
mol.print_out()
print_variables()
--------------------------------------------------------------------------

  Memory set to  57.742 GiB by Python driver.

Scratch directory: /scratch1/maxbuskirk/
gradient() will perform analytic gradient computation.

*** tstart() called on skylm002.palmetto.clemson.edu
*** at Thu Feb 17 15:19:17 2022

   => Loading Basis Set <=

    Name: CC-PVDZ
    Role: ORBITAL
    Keyword: BASIS
    atoms 1-12, 27            entry C          line   138 file /home/maxbuskirk/.conda/envs/psifour/share/psi4/basis/cc-pvdz.gbs 
    atoms 13-14, 16-26, 28-30 entry H          line    22 file /home/maxbuskirk/.conda/envs/psifour/share/psi4/basis/cc-pvdz.gbs 
    atoms 15                  entry O          line   198 file /home/maxbuskirk/.conda/envs/psifour/share/psi4/basis/cc-pvdz.gbs 


         ---------------------------------------------------------
                                   SCF
               by Justin Turney, Rob Parrish, Andy Simmonett
                          and Daniel G. A. Smith
                              RHF Reference
                        1 Threads,  59127 MiB Core
         ---------------------------------------------------------

  ==> Geometry <==

    Molecular point group: c1
    Full point group: C1

    Geometry (in Angstrom), charge = 0, multiplicity = 1:

       Center              X                  Y                   Z               Mass       
    ------------   -----------------  -----------------  -----------------  -----------------
         C            2.117688306787     0.529647352484    -1.885736215187    12.000000000000
         C            1.627120245726     0.457350942425    -0.452884821609    12.000000000000
         C            2.425020033465     1.304978967704     0.563976051117    12.000000000000
         C            3.620976205526     0.413865876508     0.970741008246    12.000000000000
         C            3.947609063740    -0.421184202640    -0.290006031451    12.000000000000
         C            2.594314698119    -0.599092458754    -0.989816677709    12.000000000000
         C            0.187257391389     0.146163627291    -0.161733715149    12.000000000000
         C           -0.154169598889    -0.750225326463     0.877285619922    12.000000000000
         C           -1.486244160365    -1.022938309035     1.190091956250    12.000000000000
         C           -2.528275607356    -0.402624784629     0.468050108494    12.000000000000
         C           -2.210376695524     0.490890649581    -0.566229649246    12.000000000000
         C           -0.858684645397     0.756027296121    -0.866265529277    12.000000000000
         H           -0.623945627868     1.459738939898    -1.672171007488     1.007825032230
         H           -2.989207575110     0.989609965978    -1.146678166093     1.007825032230
         O           -3.795266690889    -0.744910831702     0.855762504549    15.994914619570
         H           -1.752900268124    -1.720245053459     1.989647398903     1.007825032230
         H            0.642711320083    -1.247338186824     1.442235415777     1.007825032230
         H            2.228421985787    -1.607429268493    -1.209576468714     1.007825032230
         H            1.406688008442     0.273324136568    -2.677821415718     1.007825032230
         H            2.835646572925     1.316092203898    -2.147159168240     1.007825032230
         H            4.406767142348    -1.391497094735    -0.035311063973     1.007825032230
         H            4.661447338369     0.115007319053    -0.943455847393     1.007825032230
         H            3.295152865224    -0.271357513209     1.776306838683     1.007825032230
         H            4.484162477300     0.987486703536     1.352499872612     1.007825032230
         H            1.799157848366     1.582427166454     1.428374455279     1.007825032230
         H            2.774746620400     2.245060181221     0.096955971022     1.007825032230
         C           -4.867971338275    -0.141113409617     0.153391850576    12.000000000000
         H           -5.788464603568    -0.537531517980     0.605735004086     1.007825032230
         H           -4.856504718645     0.959958806901     0.257924064197     1.007825032230
         H           -4.850126854890    -0.401013075248    -0.921604408463     1.007825032230

  Running in c1 symmetry.

  Rotational constants: A =      0.07050  B =      0.01085  C =      0.01024 [cm^-1]
  Rotational constants: A =   2113.65953  B =    325.29043  C =    306.95484 [MHz]
  Nuclear repulsion =  856.245458698257835

  Charge       = 0
  Multiplicity = 1
  Electrons    = 102
  Nalpha       = 51
  Nbeta        = 51

  ==> Algorithm <==

  SCF Algorithm Type is DF.
  DIIS enabled.
  MOM disabled.
  Fractional occupation disabled.
  Guess Type is SAD.
  Energy threshold   = 1.00e-10
  Density threshold  = 1.00e-10
  Integral threshold = 1.00e-12

  ==> Primary Basis <==

  Basis Set: CC-PVDZ
    Blend: CC-PVDZ
    Number of shells: 132
    Number of basis functions: 276
    Number of Cartesian functions: 290
    Spherical Harmonics?: true
    Max angular momentum: 2

   => Loading Basis Set <=

    Name: (CC-PVDZ AUX)
    Role: JKFIT
    Keyword: DF_BASIS_SCF
    atoms 1-12, 27            entry C          line   121 file /home/maxbuskirk/.conda/envs/psifour/share/psi4/basis/cc-pvdz-jkfit.gbs 
    atoms 13-14, 16-26, 28-30 entry H          line    51 file /home/maxbuskirk/.conda/envs/psifour/share/psi4/basis/cc-pvdz-jkfit.gbs 
    atoms 15                  entry O          line   221 file /home/maxbuskirk/.conda/envs/psifour/share/psi4/basis/cc-pvdz-jkfit.gbs 

  ==> Integral Setup <==

  DFHelper Memory: AOs need 0.667 GiB; user supplied 43.306 GiB. Using in-core AOs.

  ==> MemDFJK: Density-Fitted J/K Matrices <==

    J tasked:                   Yes
    K tasked:                   Yes
    wK tasked:                   No
    OpenMP threads:               1
    Memory [MiB]:             44345
    Algorithm:                 Core
    Schwarz Cutoff:           1E-12
    Mask sparsity (%):      16.2020
    Fitting Condition:        1E-10

   => Auxiliary Basis Set <=

  Basis Set: (CC-PVDZ AUX)
    Blend: CC-PVDZ-JKFIT
    Number of shells: 480
    Number of basis functions: 1348
    Number of Cartesian functions: 1534
    Spherical Harmonics?: true
    Max angular momentum: 3

  Minimum eigenvalue in the overlap matrix is 3.2590201228E-04.
  Reciprocal condition number of the overlap matrix is 4.7377881676E-05.
    Using symmetric orthogonalization.

  ==> Pre-Iterations <==

  SCF Guess: Superposition of Atomic Densities via on-the-fly atomic UHF (no occupation information).

   -------------------------
    Irrep   Nso     Nmo    
   -------------------------
     A        276     276 
   -------------------------
    Total     276     276
   -------------------------

  ==> Iterations <==

                           Total Energy        Delta E     RMS |[F,P]|

   @DF-RHF iter SAD:  -575.89336287043955   -5.75893e+02   0.00000e+00 
   @DF-RHF iter   1:  -576.18495211615686   -2.91589e-01   2.24788e-03 DIIS
   @DF-RHF iter   2:  -576.41455998660513   -2.29608e-01   9.92769e-04 DIIS
   @DF-RHF iter   3:  -576.45401995774489   -3.94600e-02   2.81885e-04 DIIS
   @DF-RHF iter   4:  -576.45826186350450   -4.24191e-03   1.07159e-04 DIIS
   @DF-RHF iter   5:  -576.45877503244503   -5.13169e-04   2.10285e-05 DIIS
   @DF-RHF iter   6:  -576.45880242870328   -2.73963e-05   7.32963e-06 DIIS
   @DF-RHF iter   7:  -576.45880610020242   -3.67150e-06   2.27817e-06 DIIS
   @DF-RHF iter   8:  -576.45880672218709   -6.21985e-07   8.64506e-07 DIIS
   @DF-RHF iter   9:  -576.45880685207146   -1.29884e-07   3.78018e-07 DIIS
   @DF-RHF iter  10:  -576.45880687811689   -2.60454e-08   1.67780e-07 DIIS
   @DF-RHF iter  11:  -576.45880688567695   -7.56006e-09   8.00581e-08 DIIS
   @DF-RHF iter  12:  -576.45880688699162   -1.31467e-09   2.79910e-08 DIIS
   @DF-RHF iter  13:  -576.45880688714203   -1.50408e-10   8.39579e-09 DIIS
   @DF-RHF iter  14:  -576.45880688715283   -1.08002e-11   2.40721e-09 DIIS
   @DF-RHF iter  15:  -576.45880688715147    1.36424e-12   6.66366e-10 DIIS
   @DF-RHF iter  16:  -576.45880688715386   -2.38742e-12   2.85318e-10 DIIS
   @DF-RHF iter  17:  -576.45880688715010    3.75167e-12   1.13713e-10 DIIS
   @DF-RHF iter  18:  -576.45880688715170   -1.59162e-12   4.51285e-11 DIIS
  Energy and wave function converged.


  ==> Post-Iterations <==

    Orbital Energies [Eh]
    ---------------------

    Doubly Occupied:                                                      

       1A    -20.583480     2A    -11.301275     3A    -11.292637  
       4A    -11.241196     5A    -11.240940     6A    -11.236938  
       7A    -11.235902     8A    -11.234768     9A    -11.232276  
      10A    -11.230192    11A    -11.229472    12A    -11.226903  
      13A    -11.226031    14A    -11.225286    15A     -1.407129  
      16A     -1.176849    17A     -1.132777    18A     -1.033088  
      19A     -1.012347    20A     -1.009354    21A     -0.956231  
      22A     -0.930307    23A     -0.841555    24A     -0.818022  
      25A     -0.806642    26A     -0.769969    27A     -0.735635  
      28A     -0.708529    29A     -0.677090    30A     -0.658242  
      31A     -0.648123    32A     -0.626263    33A     -0.616600  
      34A     -0.592659    35A     -0.579914    36A     -0.572898  
      37A     -0.564930    38A     -0.560052    39A     -0.539971  
      40A     -0.517403    41A     -0.515331    42A     -0.479526  
      43A     -0.477047    44A     -0.476805    45A     -0.467873  
      46A     -0.464784    47A     -0.449480    48A     -0.402477  
      49A     -0.383295    50A     -0.333551    51A     -0.296407  

    Virtual:                                                              

      52A      0.130681    53A      0.150371    54A      0.178418  
      55A      0.187007    56A      0.202034    57A      0.209744  
      58A      0.214028    59A      0.234033    60A      0.237205  
      61A      0.250520    62A      0.252369    63A      0.259722  
      64A      0.264400    65A      0.266262    66A      0.273502  
      67A      0.288538    68A      0.301976    69A      0.304610  
      70A      0.311012    71A      0.336334    72A      0.350307  
      73A      0.360689    74A      0.375223    75A      0.393407  
      76A      0.411135    77A      0.415641    78A      0.445671  
      79A      0.466260    80A      0.478899    81A      0.499633  
      82A      0.515676    83A      0.523164    84A      0.533056  
      85A      0.588712    86A      0.618890    87A      0.627055  
      88A      0.632858    89A      0.640351    90A      0.656538  
      91A      0.665893    92A      0.676114    93A      0.682015  
      94A      0.691090    95A      0.706174    96A      0.714278  
      97A      0.718469    98A      0.727338    99A      0.736651  
     100A      0.741056   101A      0.748736   102A      0.749884  
     103A      0.758263   104A      0.783114   105A      0.792322  
     106A      0.812317   107A      0.819927   108A      0.829009  
     109A      0.839432   110A      0.846420   111A      0.856596  
     112A      0.863426   113A      0.868423   114A      0.870513  
     115A      0.876761   116A      0.887472   117A      0.891092  
     118A      0.895797   119A      0.900930   120A      0.905148  
     121A      0.907889   122A      0.910164   123A      0.915022  
     124A      0.919806   125A      0.929046   126A      0.939075  
     127A      0.948887   128A      0.953728   129A      0.955472  
     130A      0.972118   131A      0.973135   132A      0.991015  
     133A      1.011732   134A      1.040482   135A      1.054173  
     136A      1.126720   137A      1.132622   138A      1.136117  
     139A      1.155295   140A      1.165961   141A      1.173466  
     142A      1.186283   143A      1.197566   144A      1.231493  
     145A      1.246042   146A      1.261774   147A      1.266625  
     148A      1.298814   149A      1.301368   150A      1.332302  
     151A      1.337444   152A      1.347107   153A      1.364657  
     154A      1.380904   155A      1.390485   156A      1.430167  
     157A      1.436766   158A      1.457733   159A      1.472327  
     160A      1.481209   161A      1.482563   162A      1.502544  
     163A      1.519677   164A      1.574075   165A      1.576871  
     166A      1.606413   167A      1.615003   168A      1.651279  
     169A      1.656542   170A      1.670410   171A      1.692146  
     172A      1.717771   173A      1.732631   174A      1.740519  
     175A      1.757560   176A      1.773179   177A      1.785126  
     178A      1.793290   179A      1.810015   180A      1.819483  
     181A      1.831403   182A      1.842212   183A      1.846371  
     184A      1.861860   185A      1.875059   186A      1.875939  
     187A      1.887932   188A      1.899426   189A      1.904136  
     190A      1.914388   191A      1.920588   192A      1.925722  
     193A      1.927501   194A      1.938199   195A      1.946964  
     196A      1.959735   197A      1.963602   198A      1.971220  
     199A      1.974415   200A      1.989062   201A      1.993976  
     202A      2.004029   203A      2.016028   204A      2.035969  
     205A      2.037953   206A      2.045249   207A      2.048400  
     208A      2.058287   209A      2.073358   210A      2.079174  
     211A      2.086296   212A      2.110506   213A      2.120156  
     214A      2.129091   215A      2.153139   216A      2.166121  
     217A      2.174589   218A      2.191907   219A      2.216162  
     220A      2.231293   221A      2.243325   222A      2.255561  
     223A      2.259321   224A      2.268428   225A      2.283161  
     226A      2.292232   227A      2.297528   228A      2.331283  
     229A      2.344240   230A      2.353276   231A      2.360477  
     232A      2.378939   233A      2.391153   234A      2.422479  
     235A      2.442975   236A      2.452736   237A      2.455606  
     238A      2.468045   239A      2.470301   240A      2.482764  
     241A      2.538397   242A      2.556050   243A      2.564279  
     244A      2.587824   245A      2.601449   246A      2.608110  
     247A      2.634123   248A      2.680509   249A      2.724433  
     250A      2.727409   251A      2.750628   252A      2.768304  
     253A      2.777248   254A      2.779932   255A      2.785818  
     256A      2.797887   257A      2.826405   258A      2.846209  
     259A      2.862067   260A      2.908888   261A      2.916923  
     262A      2.950112   263A      2.986130   264A      2.999566  
     265A      3.006823   266A      3.056676   267A      3.077245  
     268A      3.142432   269A      3.235299   270A      3.254955  
     271A      3.258994   272A      3.407350   273A      3.426768  
     274A      3.620565   275A      3.793387   276A      4.001488  

    Final Occupation by Irrep:
              A 
    DOCC [    51 ]

  @DF-RHF Final Energy:  -576.45880688715170

   => Energetics <=

    Nuclear Repulsion Energy =            856.2454586982578348
    One-Electron Energy =               -2481.4556347216844188
    Two-Electron Energy =                1048.7513691362748887
    Total Energy =                       -576.4588068871516953

Computation Completed


Properties will be evaluated at   0.000000,   0.000000,   0.000000 [a0]

Properties computed using the SCF density matrix

  Nuclear Dipole Moment: [e a0]
     X:     7.1757      Y:     2.5766      Z:    -1.6872

  Electronic Dipole Moment: [e a0]
     X:    -7.3804      Y:    -2.3004      Z:     1.3813

  Dipole Moment: [e a0]
     X:    -0.2047      Y:     0.2763      Z:    -0.3059     Total:     0.4602

  Dipole Moment: [D]
     X:    -0.5203      Y:     0.7022      Z:    -0.7775     Total:     1.1697


*** tstop() called on skylm002.palmetto.clemson.edu at Thu Feb 17 15:19:42 2022
Module time:
	user time   =      22.30 seconds =       0.37 minutes
	system time =       1.13 seconds =       0.02 minutes
	total time  =         25 seconds =       0.42 minutes
Total time:
	user time   =      22.30 seconds =       0.37 minutes
	system time =       1.13 seconds =       0.02 minutes
	total time  =         25 seconds =       0.42 minutes
 MINTS: Wrapper to libmints.
   by Justin Turney

   Calculation information:
      Number of threads:                 1
      Number of atoms:                  30
      Number of AO shells:             132
      Number of SO shells:             132
      Number of primitives:            388
      Number of atomic orbitals:       290
      Number of basis functions:       276

      Number of irreps:                  1
      Integral cutoff                 1.00e-12
      Number of functions per irrep: [ 276 ]

 OEINTS: Overlap, kinetic, potential, dipole, and quadrupole integrals
         stored in file 35.

      Computing two-electron integrals...done
      Computed 392433238 non-zero two-electron integrals.
        Stored in file 33.


*** tstart() called on skylm002.palmetto.clemson.edu
*** at Thu Feb 17 15:26:27 2022


	Wfn Parameters:
	--------------------
	Wavefunction         = CCSD
	Number of irreps     = 1
	Number of MOs        = 276
	Number of active MOs = 276
	AO-Basis             = NONE
	Semicanonical        = false
	Reference            = RHF
	Print Level          = 1

	IRREP	# MOs	# FZDC	# DOCC	# SOCC	# VIRT	# FZVR
	-----	-----	------	------	------	------	------
	 A	   276	    0	    51	    0	    225	    0
	Transforming integrals...
	IWL integrals will be deleted.
	(OO|OO)...
	Presorting SO-basis two-electron integrals.
	Sorting File: SO Ints (nn|nn) nbuckets = 1
	Constructing frozen core operators
	Starting first half-transformation.
	Sorting half-transformed integrals.
	First half integral transformation complete.
	Starting second half-transformation.
	Two-electron integral transformation complete.
	(OO|OV)...
	Starting second half-transformation.
	Two-electron integral transformation complete.
	(OO|VV)...
	Starting second half-transformation.
	Two-electron integral transformation complete.
	(OV|OO)...
	Starting first half-transformation.
	Sorting half-transformed integrals.
	First half integral transformation complete.
	Starting second half-transformation.
	Two-electron integral transformation complete.
	(OV|OV)...
	Starting second half-transformation.
	Two-electron integral transformation complete.
	(OV|VV)...
	Starting second half-transformation.
	Two-electron integral transformation complete.
	(VV|OO)...
	Starting first half-transformation.
	Sorting half-transformed integrals.
	First half integral transformation complete.
	Starting second half-transformation.
	Two-electron integral transformation complete.
	(VV|OV)...
	Starting second half-transformation.
	Two-electron integral transformation complete.
	(VV|VV)...
	Starting second half-transformation.
	Two-electron integral transformation complete.
	Frozen core energy     =      0.00000000000000

	Size of irrep 0 of <ab|cd> integrals:   2562.891 (MW) /  20503.125 (MB)
	Total:                                  2562.891 (MW) /  20503.125 (MB)

	Size of irrep 0 of <ia|bc> integrals:    580.922 (MW) /   4647.375 (MB)
	Total:                                   580.922 (MW) /   4647.375 (MB)

	Size of irrep 0 of tijab amplitudes:     131.676 (MW) /   1053.405 (MB)
	Total:                                   131.676 (MW) /   1053.405 (MB)

	Nuclear Rep. energy          =    856.24545869825783
	SCF energy                   =   -576.45880688715170
	One-electron energy          =  -2481.45563469900026
	Two-electron energy          =   1048.75061003043788
	Reference energy             =   -576.45956597030454

*** tstop() called on skylm002.palmetto.clemson.edu at Thu Feb 17 15:41:57 2022
Module time:
	user time   =     385.93 seconds =       6.43 minutes
	system time =     158.08 seconds =       2.63 minutes
	total time  =        930 seconds =      15.50 minutes
Total time:
	user time   =     671.49 seconds =      11.19 minutes
	system time =     170.06 seconds =       2.83 minutes
	total time  =       1360 seconds =      22.67 minutes
            **************************
            *                        *
            *        CCENERGY        *
            *                        *
            **************************

    Nuclear Rep. energy (wfn)     =  856.245458698257835
    SCF energy          (wfn)     = -576.458806887151695
    Reference energy    (file100) = -576.459565970304538

    Input parameters:
    -----------------
    Wave function   =     CCSD
    Reference wfn   =     RHF
    Brueckner       =     No
    Memory (Mbytes) =     62000.0
    Maxiter         =     50
    R_Convergence   =     1.0e-07
    E_Convergence   =     1.0e-08
    Restart         =     Yes
    DIIS            =     Yes
    AO Basis        =     NONE
    ABCD            =     NEW
    Cache Level     =     2
    Cache Type      =     LOW
    Print Level     =     1
    Num. of threads =     1
    # Amps to Print =     10
    Print MP2 Amps? =     No
    Analyze T2 Amps =     No
    Print Pair Ener =     No
    Local CC        =     No
    SCS-MP2         =     False
    SCSN-MP2        =     False
    SCS-CCSD        =     False

MP2 correlation energy -1.9813182840871775
                Solving CC Amplitude Equations
                ------------------------------
  Iter             Energy              RMS        T1Diag      D1Diag    New D1Diag    D2Diag
  ----     ---------------------    ---------   ----------  ----------  ----------   --------
     0        -1.981318284087177    0.000e+00    0.000000    0.000000    0.000000    0.178785
     1        -2.012804413697308    1.355e-01    0.007368    0.031838    0.031838    0.166806
     2        -2.066255709976378    4.691e-02    0.007350    0.028173    0.028173    0.180229
     3        -2.078650923065186    2.028e-02    0.008478    0.037565    0.037565    0.183807
     4        -2.078754727844186    6.173e-03    0.008603    0.037888    0.037888    0.185281
     5        -2.078874669444069    2.964e-03    0.008693    0.039491    0.039491    0.186299
     6        -2.078971119924037    8.267e-04    0.008719    0.039974    0.039974    0.186581
     7        -2.078945016949874    3.220e-04    0.008725    0.040144    0.040144    0.186637
     8        -2.078935848844653    1.091e-04    0.008728    0.040224    0.040224    0.186652
     9        -2.078940181744426    4.524e-05    0.008730    0.040255    0.040255    0.186653
    10        -2.078937208508101    2.275e-05    0.008731    0.040275    0.040275    0.186650
    11        -2.078937013083413    8.699e-06    0.008731    0.040282    0.040282    0.186650
    12        -2.078936701397530    3.885e-06    0.008731    0.040285    0.040285    0.186649
    13        -2.078936624610922    1.366e-06    0.008731    0.040285    0.040285    0.186649
    14        -2.078936601921006    7.668e-07    0.008731    0.040286    0.040286    0.186649
    15        -2.078936608536525    3.551e-07    0.008731    0.040285    0.040285    0.186649
    16        -2.078936609184209    1.623e-07    0.008731    0.040285    0.040285    0.186649
    17        -2.078936608301099    7.500e-08    0.008731    0.040285    0.040285    0.186649

    Iterations converged.


    Largest TIA Amplitudes:
             46   1        -0.0188548566
             30   1         0.0166341251
             49  49        -0.0143501158
             39   1         0.0141471732
             49  47        -0.0110440636
             49   0        -0.0109947195
             49  93         0.0109161950
             30  13         0.0087306510
             42   1        -0.0083041169
             50  49        -0.0080955443

    Largest TIjAb Amplitudes:
     49  49   0   0        -0.0831682095
     50  50   1   1        -0.0711786896
     49  50   1   0        -0.0451006464
     50  49   0   1        -0.0451006464
     50  50   0   0        -0.0347629606
     49  49   1   1        -0.0287802655
     46  49   0  21         0.0161866891
     49  46  21   0         0.0161866891
     39  49   0  21         0.0158647205
     49  39  21   0         0.0158647205

    SCF energy       (wfn)                    = -576.458806887151695
    Reference energy (file100)                = -576.459565970304538

    Opposite-spin MP2 correlation energy      =   -1.466696938327134
    Same-spin MP2 correlation energy          =   -0.514621345760044
    Singles MP2 correlation energy            =   -0.000000000000000
    MP2 correlation energy                    =   -1.981318284087177
      * MP2 total energy                      = -578.440884254391676

    Opposite-spin CCSD correlation energy     =   -1.616293572874424
    Same-spin CCSD correlation energy         =   -0.462643035426675
    Singles CCSD correlation energy           =    0.000000000000000
    CCSD correlation energy                   =   -2.078936608301099
      * CCSD total energy                     = -578.538502578605630


			**************************
			*                        *
			*         CCHBAR         *
			*                        *
			**************************


			**************************
			*        CCLAMBDA        *
			**************************


	Nuclear Rep. energy (wfn)     =  856.245458698257835
	Reference           (wfn)     =                    0
	SCF energy          (wfn)     = -576.458806887151695
	Reference energy    (CC_INFO) = -576.459565970304538
	CCSD energy         (CC_INFO) =   -2.078936608301099
	Total CCSD energy   (CC_INFO) = -578.538502578605630

	Input parameters:
	-----------------
	Maxiter           =     50
	Convergence       = 1.0e-07
	Restart           =     No
	Cache Level       =     2
	Model III         =     No
	DIIS              =     Yes
	AO Basis          =     No
	ABCD              =     NEW
	Local CC          =     No
	Parameters for left-handed eigenvectors:
	    Irr   Root  Ground-State?    EOM energy        R0
	  1   0     0        Yes       0.0000000000   1.0000000000
	Labels for eigenvector 1:
	LIA 0 -1, Lia 0 -1, LIJAB 0 -1, Lijab 0 -1, LIjAb 0 -1, 2LIjAb - LIjbA 0 -1
	Symmetry of left-hand state: A
	Symmetry of left-hand eigenvector: A

	          Solving Lambda Equations
	          ------------------------
	Iter     PseudoEnergy or Norm         RMS  
	----     ---------------------     --------
	   0        -2.079132719240627    0.000e+00
	   1        -2.020053584722528    3.728e-02
	   2        -2.014333594864562    7.726e-03
	   3        -2.012895160373850    3.916e-03
	   4        -2.012488524732552    1.393e-03
	   5        -2.012580948578728    7.458e-04
	   6        -2.012599616164728    2.725e-04
	   7        -2.012588622501786    1.196e-04
	   8        -2.012590784558792    4.684e-05
	   9        -2.012592281112741    1.880e-05
	  10        -2.012592035590877    7.500e-06
	  11        -2.012592138381064    3.161e-06
	  12        -2.012591987919892    1.468e-06
	  13        -2.012591946099554    7.123e-07
	  14        -2.012591944280849    3.721e-07
	  15        -2.012591940514274    1.889e-07
	  16        -2.012591941183691    9.081e-08

	Largest LIA Amplitudes:
	         46   1        -0.0124379846
	         49  49        -0.0114527233
	         30   1         0.0109052332
	         39   1         0.0102607724
	         49  93         0.0087874966
	         49  47        -0.0087708845
	         49   0        -0.0083175345
	         50  49        -0.0061804970
	         30  13         0.0056891884
	         42   1        -0.0055287187

	Largest LIjAb Amplitudes:
	 49  49   0   0        -0.0783806366
	 50  50   1   1        -0.0666715236
	 49  50   1   0        -0.0427052552
	 50  49   0   1        -0.0427052552
	 50  50   0   0        -0.0307932857
	 49  49   1   1        -0.0258753454
	 46  49   0  21         0.0153165586
	 49  46  21   0         0.0153165586
	 39  49   0  21         0.0151367443
	 49  39  21   0         0.0151367443

	Iterations converged.

	Overlap <L|e^T> =        0.23367047307

			**************************
			*                        *
			*        CCDENSITY       *
			*                        *
			**************************


	Input parameters:
	-----------------
	Wave function    =   CCSD
	Reference wfn    =   RHF
	Dertype          = 1
	Tolerance        = 1.0e-14
	Cache Level      = 2
	AO Basis         = No
	OPDM Only        = No
	Relax OPDM       = Yes
	Compute Xi       = No
	Use Zeta         = No
	Xi connected     = Yes
	Compute NO       = No

	Nuclear Rep. energy (wfn)     =  856.245458698257835
	SCF energy          (wfn)     = -576.458806887151695
	Reference energy    (file100) = -576.459565970304538
	CCSD energy         (CC_INFO) =   -2.078936608301099
	Total CCSD energy   (CC_INFO) = -578.538502578605630
	Number of States = 1

	Ground?  State     EOM Energy       R0
	  Yes     0  A    0.0000000000   1.00000000

	Virial Theorem Data:
	--------------------
	Kinetic energy (ref)   =  575.480702885913388
	Kinetic energy (corr)  =    1.969601333159525
	Kinetic energy (total) =  577.450304219072905
	-V/T (ref)             =    2.001700948580000
	-V/T (corr)            =    2.055511373444384
	-V/T (total)           =    2.001884488330133
    Molecular point group: c1
    Full point group: C1

    Geometry (in Bohr), charge = 0, multiplicity = 1:

       Center              X                  Y                   Z       
    ------------   -----------------  -----------------  -----------------
         C            4.001850918912     1.000888439268    -3.563524991561
         C            3.074811637610     0.864268024403    -0.855828279218
         C            4.582623711997     2.466052848443     1.065760277929
         C            6.842653335244     0.782093159272     1.834434644336
         C            7.459899980844    -0.795922791359    -0.548031974173
         C            4.902544262695    -1.132120670872    -1.870482435280
         C            0.353865184693     0.276209225083    -0.305632426884
         C           -0.291338318772    -1.417720399397     1.657829555455
         C           -2.808594418651    -1.933073247315     2.248947861423
         C           -4.777748467578    -0.760850574270     0.884486518045
         C           -4.177006588635     0.927648885256    -1.070018961189
         C           -1.622678807936     1.428684533039    -1.637004602258
         H           -1.179086353847     2.758506811073    -3.159945239083
         H           -5.648783649102     1.870091806722    -2.166907687958
         O           -7.172014618853    -1.407677459804     1.617156762034
         H           -3.312501431996    -3.250792019711     3.759888670156
         H            1.214548372688    -2.357127558923     2.725429944254
         H            4.211107245086    -3.037601083497    -2.285768253668
         H            2.658255079921     0.516507761591    -5.060349088593
         H            5.358595411421     2.487053821217    -4.057542775739
         H            8.327582997704    -2.629548413420    -0.066728240107
         H            8.808858817762     0.217332335433    -1.782873163034
         H            6.226936456791    -0.512791382051     3.356733439889
         H            8.473838984151     1.866079422214     2.555854343953
         H            3.399915589880     2.990353958082     2.699236525077
         H            5.243511180096     4.242548877678     0.183220231460
         C           -9.199132615918    -0.266665696806     0.289868587466
         H          -10.938612787650    -1.015787352784     1.144673262326
         H           -9.177463845233     1.814059236764     0.487405842498
         H           -9.165411429470    -0.757804884947    -1.741579928009

	Presorting MO-basis TPDM.
	Sorting File: MO TPDM (AA|AA) nbuckets = 1
	Starting first half-transformation.
	Sorting half-transformed TPDM.
	First half integral transformation complete.


  -Total gradient:
     Atom            X                  Y                   Z
    ------   -----------------  -----------------  -----------------
       1       -0.000097743154    -0.000025555160    -0.000019387607
       2       -0.000087229041     0.000071115067    -0.000027547860
       3       -0.000012058760    -0.000120957937     0.000168966140
       4        0.000089644945     0.000200656495    -0.000099332356
       5       -0.000123320449    -0.000158172958     0.000150637772
       6        0.000180352563    -0.000032789637    -0.000127837506
       7        0.000109683466    -0.000130783981     0.000139022076
       8        0.000171533148     0.000115078075    -0.000092821409
       9       -0.000279619958     0.000064924868    -0.000079825825
      10        0.000292024772    -0.000131232243     0.000136962442
      11        0.000364738360     0.000197142068    -0.000241092906
      12       -0.000168716253     0.000030335520    -0.000084497683
      13        0.000034281956    -0.000004469294     0.000020941442
      14        0.000267194542    -0.000033443864     0.000035862560
      15       -0.000452337998     0.000162947528    -0.000189616678
      16        0.000081114426    -0.000006676613     0.000012596793
      17       -0.000028417931    -0.000004053081     0.000010324568
      18       -0.000050102168     0.000021310330    -0.000026587542
      19        0.000000155077     0.000002728301     0.000002201095
      20       -0.000004107707    -0.000017822900     0.000019667144
      21        0.000047798691     0.000021186618    -0.000044923219
      22       -0.000045089483     0.000061739785     0.000027718307
      23       -0.000046321025    -0.000011223155    -0.000046281564
      24        0.000008682547    -0.000007888819     0.000053934368
      25       -0.000001076473     0.000063642563    -0.000028749879
      26        0.000086836571    -0.000040628335    -0.000016561800
      27       -0.000350843554    -0.000205138384     0.000271241382
      28        0.000080511293    -0.000006443544    -0.000000149159
      29       -0.000038171104    -0.000084969617    -0.000001568353
      30       -0.000029397297     0.000009442300     0.000076705258


			-----------------------------------------
			 OPTKING 2.0: for geometry optimizations 
			  - R.A. King,  Bethel University        
			-----------------------------------------

	Internal coordinates to be generated automatically.
	Detected frag 1 with atoms:  1 2 3 4 5 6 7 8 9 10 11 12 13 14 15 16 17 18 19 20
	 21 22 23 24 25 26 27 28 29 30
	---Fragment 1 Bond Connectivity---
	 1 : 2 6 19 20
	 2 : 1 3 6 7
	 3 : 2 4 25 26
	 4 : 3 5 23 24
	 5 : 4 6 21 22
	 6 : 1 2 5 18
	 7 : 2 8 12
	 8 : 7 9 17
	 9 : 8 10 16
	 10 : 9 11 15
	 11 : 10 12 14
	 12 : 7 11 13
	 13 : 12
	 14 : 11
	 15 : 10 27
	 16 : 9
	 17 : 8
	 18 : 6
	 19 : 1
	 20 : 1
	 21 : 5
	 22 : 5
	 23 : 4
	 24 : 4
	 25 : 3
	 26 : 3
	 27 : 15 28 29 30
	 28 : 27
	 29 : 27
	 30 : 27

	---Fragment 1 Geometry and Gradient---
	 C           4.0018509189        1.0008884393       -3.5635249916
	 C           3.0748116376        0.8642680244       -0.8558282792
	 C           4.5826237120        2.4660528484        1.0657602779
	 C           6.8426533352        0.7820931593        1.8344346443
	 C           7.4598999808       -0.7959227914       -0.5480319742
	 C           4.9025442627       -1.1321206709       -1.8704824353
	 C           0.3538651847        0.2762092251       -0.3056324269
	 C          -0.2913383188       -1.4177203994        1.6578295555
	 C          -2.8085944187       -1.9330732473        2.2489478614
	 C          -4.7777484676       -0.7608505743        0.8844865180
	 C          -4.1770065886        0.9276488853       -1.0700189612
	 C          -1.6226788079        1.4286845330       -1.6370046023
	 H          -1.1790863538        2.7585068111       -3.1599452391
	 H          -5.6487836491        1.8700918067       -2.1669076880
	 O          -7.1720146189       -1.4076774598        1.6171567620
	 H          -3.3125014320       -3.2507920197        3.7598886702
	 H           1.2145483727       -2.3571275589        2.7254299443
	 H           4.2111072451       -3.0376010835       -2.2857682537
	 H           2.6582550799        0.5165077616       -5.0603490886
	 H           5.3585954114        2.4870538212       -4.0575427757
	 H           8.3275829977       -2.6295484134       -0.0667282401
	 H           8.8088588178        0.2173323354       -1.7828731630
	 H           6.2269364568       -0.5127913821        3.3567334399
	 H           8.4738389842        1.8660794222        2.5558543440
	 H           3.3999155899        2.9903539581        2.6992365251
	 H           5.2435111801        4.2425488777        0.1832202315
	 C          -9.1991326159       -0.2666656968        0.2898685875
	 H         -10.9386127877       -1.0157873528        1.1446732623
	 H          -9.1774638452        1.8140592368        0.4874058425
	 H          -9.1654114295       -0.7578048849       -1.7415799280
	            -0.0000977432       -0.0000255552       -0.0000193876
	            -0.0000872290        0.0000711151       -0.0000275479
	            -0.0000120588       -0.0001209579        0.0001689661
	             0.0000896449        0.0002006565       -0.0000993324
	            -0.0001233204       -0.0001581730        0.0001506378
	             0.0001803526       -0.0000327896       -0.0001278375
	             0.0001096835       -0.0001307840        0.0001390221
	             0.0001715331        0.0001150781       -0.0000928214
	            -0.0002796200        0.0000649249       -0.0000798258
	             0.0002920248       -0.0001312322        0.0001369624
	             0.0003647384        0.0001971421       -0.0002410929
	            -0.0001687163        0.0000303355       -0.0000844977
	             0.0000342820       -0.0000044693        0.0000209414
	             0.0002671945       -0.0000334439        0.0000358626
	            -0.0004523380        0.0001629475       -0.0001896167
	             0.0000811144       -0.0000066766        0.0000125968
	            -0.0000284179       -0.0000040531        0.0000103246
	            -0.0000501022        0.0000213103       -0.0000265875
	             0.0000001551        0.0000027283        0.0000022011
	            -0.0000041077       -0.0000178229        0.0000196671
	             0.0000477987        0.0000211866       -0.0000449232
	            -0.0000450895        0.0000617398        0.0000277183
	            -0.0000463210       -0.0000112232       -0.0000462816
	             0.0000086825       -0.0000078888        0.0000539344
	            -0.0000010765        0.0000636426       -0.0000287499
	             0.0000868366       -0.0000406283       -0.0000165618
	            -0.0003508436       -0.0002051384        0.0002712414
	             0.0000805113       -0.0000064435       -0.0000001492
	            -0.0000381711       -0.0000849696       -0.0000015684
	            -0.0000293973        0.0000094423        0.0000767053

	Previous optimization step data not found.  Starting new optimization.

	---Fragment 1 Intrafragment Coordinates---
	 - Coordinate -           - BOHR/RAD -       - ANG/DEG -
	 R(1,2)           =         2.865255	       1.516228
	 R(1,6)           =         2.868339	       1.517860
	 R(1,19)          =         2.068902	       1.094816
	 R(1,20)          =         2.072075	       1.096495
	 R(2,3)           =         2.920910	       1.545679
	 R(2,6)           =         2.890622	       1.529651
	 R(2,7)           =         2.837618	       1.501603
	 R(3,4)           =         2.921355	       1.545914
	 R(3,25)          =         2.083731	       1.102663
	 R(3,26)          =         2.090834	       1.106422
	 R(4,5)           =         2.923572	       1.547088
	 R(4,23)          =         2.091226	       1.106629
	 R(4,24)          =         2.087161	       1.104478
	 R(5,6)           =         2.898616	       1.533881
	 R(5,21)          =         2.084877	       1.103269
	 R(5,22)          =         2.090744	       1.106374
	 R(6,18)          =         2.069155	       1.094950
	 R(7,8)           =         2.672240	       1.414089
	 R(7,12)          =         2.647164	       1.400819
	 R(8,9)           =         2.636586	       1.395221
	 R(8,17)          =         2.071220	       1.096042
	 R(9,10)          =         2.667101	       1.411369
	 R(9,16)          =         2.067183	       1.093906
	 R(10,11)         =         2.651794	       1.403269
	 R(10,15)         =         2.586059	       1.368483
	 R(11,12)         =         2.664038	       1.409748
	 R(11,14)         =         2.063369	       1.091888
	 R(12,13)         =         2.069915	       1.095352
	 R(15,27)         =         2.678210	       1.417248
	 R(27,28)         =         2.077899	       1.099577
	 R(27,29)         =         2.090193	       1.106082
	 R(27,30)         =         2.090248	       1.106112
	 B(1,2,3)         =         2.013663	     115.374371
	 B(1,2,6)         =         1.043314	      59.777503
	 B(1,2,7)         =         2.098273	     120.222215
	 B(1,6,2)         =         1.041472	      59.671929
	 B(1,6,5)         =         2.048887	     117.392597
	 B(1,6,18)        =         2.050390	     117.478691
	 B(2,1,6)         =         1.056807	      60.550568
	 B(2,1,19)        =         2.051521	     117.543466
	 B(2,1,20)        =         2.061623	     118.122285
	 B(2,3,4)         =         1.830040	     104.853570
	 B(2,3,25)        =         1.939819	     111.143436
	 B(2,3,26)        =         1.929885	     110.574285
	 B(2,6,5)         =         1.893999	     108.518156
	 B(2,6,18)        =         2.088828	     119.681015
	 B(2,7,8)         =         2.100586	     120.354729
	 B(2,7,12)        =         2.127304	     121.885558
	 B(3,2,6)         =         1.857991	     106.455020
	 B(3,2,7)         =         2.072679	     118.755748
	 B(3,4,5)         =         1.833863	     105.072591
	 B(3,4,23)        =         1.897251	     108.704493
	 B(3,4,24)        =         1.978155	     113.339922
	 B(4,3,25)        =         1.958297	     112.202126
	 B(4,3,26)        =         1.935102	     110.873175
	 B(4,5,6)         =         1.821542	     104.366669
	 B(4,5,21)        =         1.954599	     111.990268
	 B(4,5,22)        =         1.934718	     110.851202
	 B(5,4,23)        =         1.897751	     108.733115
	 B(5,4,24)        =         1.979039	     113.390584
	 B(5,6,18)        =         2.086562	     119.551185
	 B(6,1,19)        =         2.045261	     117.184846
	 B(6,1,20)        =         2.058369	     117.935845
	 B(6,2,7)         =         2.130851	     122.088781
	 B(6,5,21)        =         1.950341	     111.746327
	 B(6,5,22)        =         1.934772	     110.854262
	 B(7,8,9)         =         2.116658	     121.275566
	 B(7,8,17)        =         2.083680	     119.386057
	 B(7,12,11)       =         2.125856	     121.802598
	 B(7,12,13)       =         2.082572	     119.322583
	 B(8,7,12)        =         2.054701	     117.725717
	 B(8,9,10)        =         2.099358	     120.284326
	 B(8,9,16)        =         2.119052	     121.412750
	 B(9,8,17)        =         2.082809	     119.336162
	 B(9,10,11)       =         2.082499	     119.318424
	 B(9,10,15)       =         2.013832	     115.384069
	 B(10,9,16)       =         2.064761	     118.302098
	 B(10,11,12)      =         2.087287	     119.592757
	 B(10,11,14)      =         2.118885	     121.403183
	 B(10,15,27)      =         2.041811	     116.987151
	 B(11,10,15)      =         2.186851	     125.297324
	 B(11,12,13)      =         2.074756	     118.874771
	 B(12,11,14)      =         2.077012	     119.004009
	 B(15,27,28)      =         1.850585	     106.030708
	 B(15,27,29)      =         1.949184	     111.679999
	 B(15,27,30)      =         1.949086	     111.674413
	 B(19,1,20)       =         2.004967	     114.876143
	 B(21,5,22)       =         1.869269	     107.101249
	 B(23,4,24)       =         1.875573	     107.462444
	 B(25,3,26)       =         1.871835	     107.248252
	 B(28,27,29)      =         1.905708	     109.189044
	 B(28,27,30)      =         1.905619	     109.183953
	 B(29,27,30)      =         1.902425	     109.000930
	 D(1,2,3,4)       =        -1.474445	     -84.479461
	 D(1,2,3,25)      =         2.689074	     154.072578
	 D(1,2,3,26)      =         0.612211	      35.077085
	 D(1,2,6,5)       =         1.945707	     111.480788
	 D(1,2,6,18)      =        -1.856550	    -106.372460
	 D(1,2,7,8)       =         2.397049	     137.340790
	 D(1,2,7,12)      =        -0.782407	     -44.828606
	 D(1,6,2,3)       =        -1.923101	    -110.185573
	 D(1,6,2,7)       =         1.898967	     108.802769
	 D(1,6,5,4)       =         1.453292	      83.267523
	 D(1,6,5,21)      =        -2.714209	    -155.512696
	 D(1,6,5,22)      =        -0.630472	     -36.123405
	 D(2,1,6,5)       =        -1.682312	     -96.389374
	 D(2,1,6,18)      =         1.920235	     110.021373
	 D(2,3,4,5)       =         0.561990	      32.199668
	 D(2,3,4,23)      =        -1.466999	     -84.052836
	 D(2,3,4,24)      =         2.731994	     156.531717
	 D(2,6,1,19)      =        -1.882836	    -107.878549
	 D(2,6,1,20)      =         1.889456	     108.257851
	 D(2,6,5,4)       =         0.322792	      18.494615
	 D(2,6,5,21)      =         2.438476	     139.714395
	 D(2,6,5,22)      =        -1.760973	    -100.896314
	 D(2,7,8,9)       =         3.108330	     178.094211
	 D(2,7,8,17)      =        -0.042773	      -2.450718
	 D(2,7,12,11)     =        -3.109923	    -178.185479
	 D(2,7,12,13)     =         0.030262	       1.733857
	 D(3,2,1,6)       =         1.657437	      94.964161
	 D(3,2,1,19)      =        -2.753133	    -157.742899
	 D(3,2,1,20)      =        -0.226721	     -12.990133
	 D(3,2,6,5)       =         0.022606	       1.295214
	 D(3,2,6,18)      =         2.503535	     143.441966
	 D(3,2,7,8)       =        -1.228057	     -70.362479
	 D(3,2,7,12)      =         1.875673	     107.468125
	 D(3,4,5,6)       =        -0.544240	     -31.182656
	 D(3,4,5,21)      =        -2.657096	    -152.240382
	 D(3,4,5,22)      =         1.539561	      88.210341
	 D(4,3,2,6)       =        -0.360151	     -20.635142
	 D(4,3,2,7)       =         2.127871	     121.918012
	 D(4,5,6,18)      =        -2.159137	    -123.709435
	 D(5,4,3,25)      =         2.669484	     152.950159
	 D(5,4,3,26)      =        -1.521171	     -87.156650
	 D(5,6,1,19)      =         2.718038	     155.732078
	 D(5,6,1,20)      =         0.207144	      11.868477
	 D(5,6,2,7)       =        -2.438512	    -139.716443
	 D(6,1,2,7)       =        -1.952128	    -111.848716
	 D(6,2,1,19)      =         1.872615	     107.292940
	 D(6,2,1,20)      =        -1.884158	    -107.954294
	 D(6,2,3,25)      =        -2.479818	    -142.083103
	 D(6,2,3,26)      =         1.726504	      98.921405
	 D(6,2,7,8)       =         1.154431	      66.144042
	 D(6,2,7,12)      =        -2.025024	    -116.025355
	 D(6,5,4,23)      =         1.484406	      85.050174
	 D(6,5,4,24)      =        -2.713684	    -155.482640
	 D(7,2,1,19)      =        -0.079513	      -4.555776
	 D(7,2,1,20)      =         2.446899	     140.196990
	 D(7,2,3,25)      =         0.008204	       0.470050
	 D(7,2,3,26)      =        -2.068659	    -118.525442
	 D(7,2,6,18)      =         0.042417	       2.430309
	 D(7,8,9,10)      =        -0.000219	      -0.012532
	 D(7,8,9,16)      =         3.135507	     179.651331
	 D(7,12,11,10)    =         0.004559	       0.261214
	 D(7,12,11,14)    =        -3.138445	    -179.819670
	 D(8,7,12,11)     =        -0.005241	      -0.300267
	 D(8,7,12,13)     =         3.134944	     179.619069
	 D(8,9,10,11)     =        -0.000568	      -0.032519
	 D(8,9,10,15)     =         3.138454	     179.820151
	 D(9,8,7,12)      =         0.003057	       0.175143
	 D(9,10,11,12)    =        -0.001537	      -0.088047
	 D(9,10,11,14)    =         3.141502	     179.994833
	 D(9,10,15,27)    =         3.141185	     179.976648
	 D(10,9,8,17)     =        -3.132305	    -179.467870
	 D(10,11,12,13)   =        -3.135632	    -179.658472
	 D(10,15,27,28)   =        -3.141428	    -179.990561
	 D(10,15,27,29)   =        -1.067419	     -61.158626
	 D(10,15,27,30)   =         1.067909	      61.186702
	 D(11,10,9,16)    =        -3.136474	    -179.706699
	 D(11,10,15,27)   =        -0.003155	      -0.180746
	 D(12,7,8,17)     =         3.135139	     179.630214
	 D(12,11,10,15)   =        -3.140283	    -179.924960
	 D(13,12,11,14)   =         0.004549	       0.260644
	 D(14,11,10,15)   =         0.002756	       0.157920
	 D(15,10,9,16)    =         0.002548	       0.145971
	 D(16,9,8,17)     =         0.003421	       0.195992
	 D(18,6,1,19)     =         0.037399	       2.142825
	 D(18,6,1,20)     =        -2.473494	    -141.720776
	 D(18,6,5,21)     =        -0.043453	      -2.489654
	 D(18,6,5,22)     =         2.040284	     116.899637
	 D(21,5,4,23)     =        -0.628450	     -36.007552
	 D(21,5,4,24)     =         1.456645	      83.459634
	 D(22,5,4,23)     =        -2.714979	    -155.556829
	 D(22,5,4,24)     =        -0.629883	     -36.089643
	 D(23,4,3,25)     =         0.640495	      36.697655
	 D(23,4,3,26)     =         2.733026	     156.590846
	 D(24,4,3,25)     =        -1.443698	     -82.717792
	 D(24,4,3,26)     =         0.648833	      37.175399

	Current energy   :      -578.5385025786

	Generating empirical Hessian (Schlegel '84) for each fragment.
	Taking RFO optimization step.
	Going to follow RFO solution 1.
	Using RFO vector 1.
	Norm of target step-size    0.02619
	Projected energy change by RFO approximation:        -0.0000687202

	Back-transformation to cartesian coordinates...
	Successfully converged to displaced geometry.

	--- Internal Coordinate Step in ANG or DEG, aJ/ANG or AJ/DEG ---
	 ---------------------------------------------------------------------------
	   Coordinate                Previous        Force       Change         New 
	   ----------                --------       ------       ------       ------
	    1 R(1,2)          =      1.516228    -0.000007     0.000037     1.516265
	    2 R(1,6)          =      1.517860     0.000025    -0.000018     1.517842
	    3 R(1,19)         =      1.094816     0.000019     0.000004     1.094820
	    4 R(1,20)         =      1.096495     0.000166     0.000031     1.096526
	    5 R(2,3)          =      1.545679    -0.000619    -0.000146     1.545533
	    6 R(2,6)          =      1.529651    -0.000289    -0.000181     1.529470
	    7 R(2,7)          =      1.501603     0.000353     0.000070     1.501673
	    8 R(3,4)          =      1.545914     0.000646     0.000264     1.546178
	    9 R(3,25)         =      1.102663     0.000049     0.000009     1.102672
	   10 R(3,26)         =      1.106422     0.000000     0.000000     1.106422
	   11 R(4,5)          =      1.547088     0.000010     0.000058     1.547146
	   12 R(4,23)         =      1.106629     0.000108     0.000021     1.106650
	   13 R(4,24)         =      1.104478    -0.000176    -0.000034     1.104444
	   14 R(5,6)          =      1.533881     0.000022    -0.000054     1.533827
	   15 R(5,21)         =      1.103269     0.000075     0.000015     1.103284
	   16 R(5,22)         =      1.106374     0.000128     0.000025     1.106399
	   17 R(6,18)         =      1.094950    -0.000020    -0.000004     1.094946
	   18 R(7,8)          =      1.414089     0.001489     0.000236     1.414324
	   19 R(7,12)         =      1.400819    -0.000148    -0.000014     1.400805
	   20 R(8,9)          =      1.395221    -0.001060    -0.000140     1.395081
	   21 R(8,17)         =      1.096042     0.000111     0.000021     1.096063
	   22 R(9,10)         =      1.411369     0.000484     0.000063     1.411432
	   23 R(9,16)         =      1.093906     0.000052     0.000010     1.093916
	   24 R(10,11)        =      1.403269    -0.003857    -0.000564     1.402705
	   25 R(10,15)        =      1.368483    -0.006650    -0.000833     1.367650
	   26 R(11,12)        =      1.409748     0.000470     0.000062     1.409810
	   27 R(11,14)        =      1.091888     0.001853     0.000344     1.092232
	   28 R(12,13)        =      1.095352     0.000090     0.000017     1.095369
	   29 R(15,27)        =      1.417248     0.000316     0.000047     1.417295
	   30 R(27,28)        =      1.099577     0.000536     0.000102     1.099679
	   31 R(27,29)        =      1.106082     0.000702     0.000137     1.106219
	   32 R(27,30)        =      1.106112     0.000637     0.000124     1.106236
	   33 B(1,2,3)        =    115.374371    -0.000001    -0.006888   115.367483
	   34 B(1,2,6)        =     59.777503     0.000001     0.002404    59.779908
	   35 B(1,2,7)        =    120.222215     0.000001    -0.007416   120.214799
	   36 B(1,6,2)        =     59.671929     0.000000     0.005958    59.677887
	   37 B(1,6,5)        =    117.392597    -0.000001    -0.044454   117.348143
	   38 B(1,6,18)       =    117.478691     0.000002     0.023935   117.502626
	   39 B(2,1,6)        =     60.550568    -0.000001    -0.008363    60.542205
	   40 B(2,1,19)       =    117.543466    -0.000001    -0.001409   117.542058
	   41 B(2,1,20)       =    118.122285     0.000002     0.005854   118.128139
	   42 B(2,3,4)        =    104.853570    -0.000002     0.024057   104.877626
	   43 B(2,3,25)       =    111.143436     0.000000    -0.028116   111.115320
	   44 B(2,3,26)       =    110.574285    -0.000001     0.000943   110.575228
	   45 B(2,6,5)        =    108.518156     0.000002     0.037588   108.555744
	   46 B(2,6,18)       =    119.681015     0.000000     0.012239   119.693254
	   47 B(2,7,8)        =    120.354729    -0.000004    -0.014870   120.339859
	   48 B(2,7,12)       =    121.885558     0.000000    -0.002403   121.883155
	   49 B(3,2,6)        =    106.455020     0.000001     0.011845   106.466865
	   50 B(3,2,7)        =    118.755748    -0.000001    -0.004019   118.751728
	   51 B(3,4,5)        =    105.072591     0.000000     0.045531   105.118122
	   52 B(3,4,23)       =    108.704493     0.000001     0.018361   108.722853
	   53 B(3,4,24)       =    113.339922    -0.000000    -0.027535   113.312388
	   54 B(4,3,25)       =    112.202126    -0.000002    -0.045434   112.156692
	   55 B(4,3,26)       =    110.873175     0.000005     0.056037   110.929212
	   56 B(4,5,6)        =    104.366669    -0.000004    -0.002601   104.364068
	   57 B(4,5,21)       =    111.990268    -0.000002    -0.045134   111.945134
	   58 B(4,5,22)       =    110.851202     0.000005     0.057226   110.908428
	   59 B(5,4,23)       =    108.733115     0.000002     0.013448   108.746564
	   60 B(5,4,24)       =    113.390584    -0.000002    -0.033957   113.356627
	   61 B(5,6,18)       =    119.551185    -0.000003    -0.013787   119.537398
	   62 B(6,1,19)       =    117.184846    -0.000001    -0.002612   117.182234
	   63 B(6,1,20)       =    117.935845     0.000002     0.007455   117.943300
	   64 B(6,2,7)        =    122.088781    -0.000000     0.015077   122.103857
	   65 B(6,5,21)       =    111.746327     0.000000    -0.032908   111.713419
	   66 B(6,5,22)       =    110.854262     0.000001     0.025692   110.879954
	   67 B(7,8,9)        =    121.275566    -0.000004    -0.005832   121.269734
	   68 B(7,8,17)       =    119.386057    -0.000000    -0.006990   119.379068
	   69 B(7,12,11)      =    121.802598    -0.000003    -0.008154   121.794444
	   70 B(7,12,13)      =    119.322583     0.000004     0.018143   119.340726
	   71 B(8,7,12)       =    117.725717     0.000003     0.016931   117.742648
	   72 B(8,9,10)       =    120.284326    -0.000014    -0.044875   120.239452
	   73 B(8,9,16)       =    121.412750     0.000013     0.052611   121.465361
	   74 B(9,8,17)       =    119.336162     0.000004     0.012778   119.348940
	   75 B(9,10,11)      =    119.318424     0.000025     0.073274   119.391698
	   76 B(9,10,15)      =    115.384069     0.000040     0.122274   115.506343
	   77 B(10,9,16)      =    118.302098     0.000000    -0.007774   118.294325
	   78 B(10,11,12)     =    119.592757    -0.000008    -0.031305   119.561453
	   79 B(10,11,14)     =    121.403183    -0.000008    -0.040440   121.362742
	   80 B(10,15,27)     =    116.987151    -0.000128    -0.385505   116.601646
	   81 B(11,10,15)     =    125.297324    -0.000065    -0.195584   125.101741
	   82 B(11,12,13)     =    118.874771    -0.000001    -0.009983   118.864787
	   83 B(12,11,14)     =    119.004009     0.000016     0.071756   119.075765
	   84 B(15,27,28)     =    106.030708     0.000008     0.043843   106.074552
	   85 B(15,27,29)     =    111.679999    -0.000004    -0.023944   111.656055
	   86 B(15,27,30)     =    111.674413    -0.000003    -0.016765   111.657648
	   87 B(19,1,20)      =    114.876143    -0.000001    -0.002544   114.873599
	   88 B(21,5,22)      =    107.101249    -0.000001    -0.000869   107.100380
	   89 B(23,4,24)      =    107.462444    -0.000000    -0.011973   107.450472
	   90 B(25,3,26)      =    107.248252    -0.000001    -0.006631   107.241620
	   91 B(28,27,29)     =    109.189044     0.000000     0.006892   109.195936
	   92 B(28,27,30)     =    109.183953     0.000000     0.008019   109.191972
	   93 B(29,27,30)     =    109.000930    -0.000001    -0.015449   108.985481
	   94 D(1,2,3,4)      =    -84.479461    -0.000000     0.141599   -84.337861
	   95 D(1,2,3,25)     =    154.072578     0.000000     0.196872   154.269450
	   96 D(1,2,3,26)     =     35.077085     0.000001     0.222634    35.299720
	   97 D(1,2,6,5)      =    111.480788    -0.000000    -0.069719   111.411068
	   98 D(1,2,6,18)     =   -106.372460    -0.000001    -0.026618  -106.399079
	   99 D(1,2,7,8)      =    137.340790    -0.000000    -0.243966   137.096824
	  100 D(1,2,7,12)     =    -44.828606    -0.000000    -0.254490   -45.083096
	  101 D(1,6,2,3)      =   -110.185573     0.000000     0.013824  -110.171750
	  102 D(1,6,2,7)      =    108.802769     0.000000    -0.014189   108.788580
	  103 D(1,6,5,4)      =     83.267523     0.000001    -0.040492    83.227031
	  104 D(1,6,5,21)     =   -155.512696    -0.000000    -0.114265  -155.626961
	  105 D(1,6,5,22)     =    -36.123405    -0.000000    -0.119879   -36.243284
	  106 D(2,1,6,5)      =    -96.389374    -0.000001    -0.073072   -96.462446
	  107 D(2,1,6,18)     =    110.021373    -0.000000     0.006447   110.027820
	  108 D(2,3,4,5)      =     32.199668     0.000001    -0.179034    32.020634
	  109 D(2,3,4,23)     =    -84.052836    -0.000000    -0.226424   -84.279260
	  110 D(2,3,4,24)     =    156.531717    -0.000000    -0.206545   156.325172
	  111 D(2,6,1,19)     =   -107.878549     0.000000     0.003567  -107.874982
	  112 D(2,6,1,20)     =    108.257851     0.000000     0.000825   108.258676
	  113 D(2,6,5,4)      =     18.494615     0.000001    -0.057180    18.437435
	  114 D(2,6,5,21)     =    139.714395    -0.000000    -0.130952   139.583443
	  115 D(2,6,5,22)     =   -100.896314    -0.000000    -0.136566  -101.032880
	  116 D(2,7,8,9)      =    178.094211    -0.000000    -0.012673   178.081537
	  117 D(2,7,8,17)     =     -2.450718    -0.000000    -0.018023    -2.468741
	  118 D(2,7,12,11)    =   -178.185479     0.000000     0.019743  -178.165736
	  119 D(2,7,12,13)    =      1.733857     0.000000     0.024600     1.758457
	  120 D(3,2,1,6)      =     94.964161     0.000000     0.019370    94.983531
	  121 D(3,2,1,19)     =   -157.742899     0.000000     0.013725  -157.729174
	  122 D(3,2,1,20)     =    -12.990133     0.000000     0.015983   -12.974150
	  123 D(3,2,6,5)      =      1.295214    -0.000000    -0.055896     1.239319
	  124 D(3,2,6,18)     =    143.441966    -0.000000    -0.012795   143.429172
	  125 D(3,2,7,8)      =    -70.362479    -0.000001    -0.287816   -70.650294
	  126 D(3,2,7,12)     =    107.468125    -0.000001    -0.298340   107.169786
	  127 D(3,4,5,6)      =    -31.182656    -0.000000     0.151377   -31.031279
	  128 D(3,4,5,21)     =   -152.240382     0.000000     0.217148  -152.023234
	  129 D(3,4,5,22)     =     88.210341    -0.000000     0.209451    88.419792
	  130 D(4,3,2,6)      =    -20.635142    -0.000000     0.148146   -20.486995
	  131 D(4,3,2,7)      =    121.918012    -0.000000     0.183572   122.101584
	  132 D(4,5,6,18)     =   -123.709435     0.000000    -0.111644  -123.821079
	  133 D(5,4,3,25)     =    152.950159     0.000000    -0.222957   152.727202
	  134 D(5,4,3,26)     =    -87.156650     0.000000    -0.223411   -87.380061
	  135 D(5,6,1,19)     =    155.732078    -0.000001    -0.069505   155.662572
	  136 D(5,6,1,20)     =     11.868477    -0.000001    -0.072247    11.796230
	  137 D(5,6,2,7)      =   -139.716443    -0.000000    -0.083909  -139.800352
	  138 D(6,1,2,7)      =   -111.848716     0.000000    -0.022300  -111.871016
	  139 D(6,2,1,19)     =    107.292940    -0.000000    -0.005645   107.287295
	  140 D(6,2,1,20)     =   -107.954294    -0.000000    -0.003387  -107.957681
	  141 D(6,2,3,25)     =   -142.083103     0.000001     0.203419  -141.879684
	  142 D(6,2,3,26)     =     98.921405     0.000001     0.229181    99.150586
	  143 D(6,2,7,8)      =     66.144042    -0.000000    -0.249579    65.894463
	  144 D(6,2,7,12)     =   -116.025355    -0.000000    -0.260102  -116.285457
	  145 D(6,5,4,23)     =     85.050174     0.000000     0.202164    85.252338
	  146 D(6,5,4,24)     =   -155.482640    -0.000000     0.174808  -155.307832
	  147 D(7,2,1,19)     =     -4.555776    -0.000000    -0.027945    -4.583721
	  148 D(7,2,1,20)     =    140.196990    -0.000000    -0.025686   140.171303
	  149 D(7,2,3,25)     =      0.470050     0.000001     0.238845     0.708895
	  150 D(7,2,3,26)     =   -118.525442     0.000001     0.264607  -118.260835
	  151 D(7,2,6,18)     =      2.430309    -0.000000    -0.040807     2.389502
	  152 D(7,8,9,10)     =     -0.012532    -0.000000    -0.002682    -0.015214
	  153 D(7,8,9,16)     =    179.651331    -0.000000    -0.010287   179.641043
	  154 D(7,12,11,10)   =      0.261214    -0.000000    -0.010598     0.250616
	  155 D(7,12,11,14)   =   -179.819670    -0.000000    -0.001697  -179.821367
	  156 D(8,7,12,11)    =     -0.300267     0.000000     0.008831    -0.291436
	  157 D(8,7,12,13)    =    179.619069     0.000000     0.013688   179.632757
	  158 D(8,9,10,11)    =     -0.032519     0.000000     0.001105    -0.031414
	  159 D(8,9,10,15)    =    179.820151    -0.000000    -0.012984   179.807167
	  160 D(9,8,7,12)     =      0.175143    -0.000000    -0.002200     0.172943
	  161 D(9,10,11,12)   =     -0.088047     0.000000     0.005347    -0.082700
	  162 D(9,10,11,14)   =    179.994833    -0.000000    -0.003857   179.990976
	  163 D(9,10,15,27)   =    179.976648     0.000000     0.064360   180.041007
	  164 D(10,9,8,17)    =   -179.467870     0.000000     0.002772  -179.465098
	  165 D(10,11,12,13)  =   -179.658472    -0.000000    -0.015456  -179.673928
	  166 D(10,15,27,28)  =   -179.990561     0.000000     0.122712  -179.867849
	  167 D(10,15,27,29)  =    -61.158626     0.000001     0.144762   -61.013864
	  168 D(10,15,27,30)  =     61.186702    -0.000001     0.095377    61.282079
	  169 D(11,10,9,16)   =   -179.706699     0.000000     0.008266  -179.698433
	  170 D(11,10,15,27)  =     -0.180746     0.000000     0.049847    -0.130899
	  171 D(12,7,8,17)    =    179.630214    -0.000000    -0.007549   179.622665
	  172 D(12,11,10,15)  =   -179.924960     0.000000     0.020333  -179.904627
	  173 D(13,12,11,14)  =      0.260644    -0.000000    -0.006554     0.254090
	  174 D(14,11,10,15)  =      0.157920     0.000000     0.011128     0.169049
	  175 D(15,10,9,16)   =      0.145971    -0.000000    -0.005823     0.140148
	  176 D(16,9,8,17)    =      0.195992    -0.000000    -0.004834     0.191159
	  177 D(18,6,1,19)    =      2.142825     0.000000     0.010014     2.152838
	  178 D(18,6,1,20)    =   -141.720776     0.000000     0.007272  -141.713503
	  179 D(18,6,5,21)    =     -2.489654    -0.000001    -0.185417    -2.675071
	  180 D(18,6,5,22)    =    116.899637    -0.000001    -0.191030   116.708606
	  181 D(21,5,4,23)    =    -36.007552     0.000001     0.267935   -35.739617
	  182 D(21,5,4,24)    =     83.459634     0.000001     0.240579    83.700214
	  183 D(22,5,4,23)    =   -155.556829     0.000000     0.260237  -155.296591
	  184 D(22,5,4,24)    =    -36.089643     0.000000     0.232882   -35.856760
	  185 D(23,4,3,25)    =     36.697655    -0.000001    -0.270347    36.427308
	  186 D(23,4,3,26)    =    156.590846    -0.000000    -0.270800   156.320046
	  187 D(24,4,3,25)    =    -82.717792    -0.000001    -0.250468   -82.968259
	  188 D(24,4,3,26)    =     37.175399    -0.000000    -0.250921    36.924478
	 ---------------------------------------------------------------------------
	Successfully symmetrized geometry.

  ==> Convergence Check <==

  Measures of convergence in internal coordinates in au.
  Criteria marked as inactive (o), active & met (*), and active & unmet ( ).
  --------------------------------------------------------------------------------------------- ~
   Step     Total Energy     Delta E     MAX Force     RMS Force      MAX Disp      RMS Disp    ~
  --------------------------------------------------------------------------------------------- ~
    Convergence Criteria    1.00e-06 *    3.00e-04 *             o    1.20e-03 *             o  ~
  --------------------------------------------------------------------------------------------- ~
      1    -578.53850258   -5.79e+02      1.68e-03      1.66e-04 o    6.73e-03      1.91e-03 o  ~
  ---------------------------------------------------------------------------------------------

	Writing optimization data to binary file.
	Structure for next step:
	Cartesian Geometry (in Angstrom)
	    C     2.1133443884   0.5281919700  -1.8863418555
	    C     1.6244729881   0.4562605048  -0.4528528862
	    C     2.4219297925   1.3062770899   0.5621377298
	    C     3.6224321368   0.4195300640   0.9660442492
	    C     3.9472140575  -0.4180885658  -0.2935479973
	    C     2.5926003521  -0.5990017649  -0.9899090446
	    C     0.1852089300   0.1435244552  -0.1600418074
	    C    -0.1536271602  -0.7567647820   0.8767718554
	    C    -1.4848094161  -1.0309528887   1.1914570903
	    C    -2.5278820016  -0.4078376012   0.4732175023
	    C    -2.2132838466   0.4891478202  -0.5582991988
	    C    -0.8622408753   0.7556113142  -0.8603661053
	    H    -0.6295771292   1.4620615432  -1.6644984794
	    H    -2.9946759656   0.9891768742  -1.1348126172
	    O    -3.7946700454  -0.7494482991   0.8592457770
	    H    -1.7505106280  -1.7310998554   1.9888587256
	    H     0.6448003403  -1.2555604538   1.4380836296
	    H     2.2283396765  -1.6082665079  -1.2080959723
	    H     1.4018699122   0.2700385955  -2.6774111895
	    H     2.8297628639   1.3155688184  -2.1493104379
	    H     4.4068594203  -1.3876297190  -0.0367389183
	    H     4.6598397153   0.1160863551  -0.9500081742
	    H     3.3025780154  -0.2643285059   1.7751831473
	    H     4.4853711890   0.9970752116   1.3423072338
	    H     1.7971728936   1.5801927402   1.4284721304
	    H     2.7659587919   2.2483769461   0.0949533901
	    C    -4.8601327975  -0.1377469744   0.1526088400
	    H    -5.7858509856  -0.5280733422   0.5998059840
	    H    -4.8412034738   0.9632435834   0.2583535164
	    H    -4.8385414325  -0.3964355338  -0.9227381757
			--------------------------
			 OPTKING Finished Execution 
			--------------------------

    Structure for next step:
    Molecular point group: c1
    Full point group: C1

    Geometry (in Angstrom), charge = 0, multiplicity = 1:

    C            2.113824931181     0.529347874196    -1.887204526340
    C            1.624953528983     0.457416408665    -0.453715551406
    C            2.422410336510     1.307432997142     0.561275068534
    C            3.622912685439     0.420685967687     0.965181589547
    C            3.947694607445    -0.416932665350    -0.294410661899
    C            2.593080896773    -0.597845865129    -0.990771711964
    C            0.185689465155     0.144680357858    -0.160904471476
    C           -0.153146626364    -0.755608882914     0.875909195405
    C           -1.484328887504    -1.029796990643     1.190594431512
    C           -2.527401477120    -0.406681700758     0.472354840684
    C           -2.212803320891     0.490303724174    -0.559161864417
    C           -0.861760344216     0.756767219269    -0.861228772162
    H           -0.629096597203     1.463217451054    -1.665361149444
    H           -2.994195442906     0.990332780182    -1.135675285081
    O           -3.794189525915    -0.748292399943     0.858383116959
    H           -1.750030100421    -1.729943960113     1.987996069977
    H            0.645280877289    -1.254404556626     1.437220971780
    H            2.228820219669    -1.607110612130    -1.208958640533
    H            1.402350452191     0.271194498640    -2.678273863486
    H            2.830243409519     1.316724725614    -2.150173109824
    H            4.407339972087    -1.386473822380    -0.037601581935
    H            4.660320268094     0.117242257663    -0.950870841348
    H            3.303058562782    -0.263172604906     1.774320490809
    H            4.485851741055     0.998231117579     1.341444575613
    H            1.797653435119     1.581348648492     1.427609472586
    H            2.766439337215     2.249532857000     0.094090727066
    C           -4.859652282107    -0.136591072910     0.151746177144
    H           -5.785370473848    -0.526917442168     0.598943322931
    H           -4.840722958358     0.964399489255     0.257490853985
    H           -4.838060917051    -0.395279633245    -0.923600842803


Scratch directory: /scratch1/maxbuskirk/
gradient() will perform analytic gradient computation.

*** tstart() called on skylm002.palmetto.clemson.edu
*** at Fri Feb 18 01:41:14 2022

   => Loading Basis Set <=

    Name: CC-PVDZ
    Role: ORBITAL
    Keyword: BASIS
    atoms 1-12, 27            entry C          line   138 file /home/maxbuskirk/.conda/envs/psifour/share/psi4/basis/cc-pvdz.gbs 
    atoms 13-14, 16-26, 28-30 entry H          line    22 file /home/maxbuskirk/.conda/envs/psifour/share/psi4/basis/cc-pvdz.gbs 
    atoms 15                  entry O          line   198 file /home/maxbuskirk/.conda/envs/psifour/share/psi4/basis/cc-pvdz.gbs 


         ---------------------------------------------------------
                                   SCF
               by Justin Turney, Rob Parrish, Andy Simmonett
                          and Daniel G. A. Smith
                              RHF Reference
                        1 Threads,  59127 MiB Core
         ---------------------------------------------------------

  ==> Geometry <==

    Molecular point group: c1
    Full point group: C1

    Geometry (in Angstrom), charge = 0, multiplicity = 1:

       Center              X                  Y                   Z               Mass       
    ------------   -----------------  -----------------  -----------------  -----------------
         C            2.113824931181     0.529347874196    -1.887204526340    12.000000000000
         C            1.624953528983     0.457416408665    -0.453715551406    12.000000000000
         C            2.422410336510     1.307432997142     0.561275068534    12.000000000000
         C            3.622912685439     0.420685967687     0.965181589547    12.000000000000
         C            3.947694607445    -0.416932665350    -0.294410661899    12.000000000000
         C            2.593080896773    -0.597845865129    -0.990771711964    12.000000000000
         C            0.185689465155     0.144680357858    -0.160904471476    12.000000000000
         C           -0.153146626364    -0.755608882914     0.875909195405    12.000000000000
         C           -1.484328887504    -1.029796990643     1.190594431512    12.000000000000
         C           -2.527401477120    -0.406681700758     0.472354840684    12.000000000000
         C           -2.212803320891     0.490303724174    -0.559161864417    12.000000000000
         C           -0.861760344216     0.756767219269    -0.861228772162    12.000000000000
         H           -0.629096597203     1.463217451054    -1.665361149444     1.007825032230
         H           -2.994195442906     0.990332780182    -1.135675285081     1.007825032230
         O           -3.794189525915    -0.748292399943     0.858383116959    15.994914619570
         H           -1.750030100421    -1.729943960113     1.987996069977     1.007825032230
         H            0.645280877289    -1.254404556626     1.437220971780     1.007825032230
         H            2.228820219669    -1.607110612130    -1.208958640533     1.007825032230
         H            1.402350452191     0.271194498640    -2.678273863486     1.007825032230
         H            2.830243409519     1.316724725614    -2.150173109824     1.007825032230
         H            4.407339972087    -1.386473822380    -0.037601581935     1.007825032230
         H            4.660320268094     0.117242257663    -0.950870841348     1.007825032230
         H            3.303058562782    -0.263172604906     1.774320490809     1.007825032230
         H            4.485851741055     0.998231117579     1.341444575613     1.007825032230
         H            1.797653435119     1.581348648492     1.427609472586     1.007825032230
         H            2.766439337215     2.249532857000     0.094090727066     1.007825032230
         C           -4.859652282107    -0.136591072910     0.151746177144    12.000000000000
         H           -5.785370473848    -0.526917442168     0.598943322931     1.007825032230
         H           -4.840722958358     0.964399489255     0.257490853985     1.007825032230
         H           -4.838060917051    -0.395279633245    -0.923600842803     1.007825032230

  Running in c1 symmetry.

  Rotational constants: A =      0.07050  B =      0.01086  C =      0.01025 [cm^-1]
  Rotational constants: A =   2113.49372  B =    325.52839  C =    307.26125 [MHz]
  Nuclear repulsion =  856.426624155102445

  Charge       = 0
  Multiplicity = 1
  Electrons    = 102
  Nalpha       = 51
  Nbeta        = 51

  ==> Algorithm <==

  SCF Algorithm Type is DF.
  DIIS enabled.
  MOM disabled.
  Fractional occupation disabled.
  Guess Type is READ.
  Energy threshold   = 1.00e-10
  Density threshold  = 1.00e-10
  Integral threshold = 1.00e-12

  ==> Primary Basis <==

  Basis Set: CC-PVDZ
    Blend: CC-PVDZ
    Number of shells: 132
    Number of basis functions: 276
    Number of Cartesian functions: 290
    Spherical Harmonics?: true
    Max angular momentum: 2

   => Loading Basis Set <=

    Name: (CC-PVDZ AUX)
    Role: JKFIT
    Keyword: DF_BASIS_SCF
    atoms 1-12, 27            entry C          line   121 file /home/maxbuskirk/.conda/envs/psifour/share/psi4/basis/cc-pvdz-jkfit.gbs 
    atoms 13-14, 16-26, 28-30 entry H          line    51 file /home/maxbuskirk/.conda/envs/psifour/share/psi4/basis/cc-pvdz-jkfit.gbs 
    atoms 15                  entry O          line   221 file /home/maxbuskirk/.conda/envs/psifour/share/psi4/basis/cc-pvdz-jkfit.gbs 

   => Loading Basis Set <=

    Name: CC-PVDZ
    Role: ORBITAL
    Keyword: BASIS
    atoms 1-12, 27            entry C          line   138 file /home/maxbuskirk/.conda/envs/psifour/share/psi4/basis/cc-pvdz.gbs 
    atoms 13-14, 16-26, 28-30 entry H          line    22 file /home/maxbuskirk/.conda/envs/psifour/share/psi4/basis/cc-pvdz.gbs 
    atoms 15                  entry O          line   198 file /home/maxbuskirk/.conda/envs/psifour/share/psi4/basis/cc-pvdz.gbs 

  Reading orbitals from file /scratch1/maxbuskirk/rOMe.mol.3698697.180.npy, no projection.

  ==> Integral Setup <==

  DFHelper Memory: AOs need 0.667 GiB; user supplied 43.306 GiB. Using in-core AOs.

  ==> MemDFJK: Density-Fitted J/K Matrices <==

[...]
     124A      0.919595   125A      0.928776   126A      0.938933  
     127A      0.948819   128A      0.952972   129A      0.955511  
     130A      0.971498   131A      0.973078   132A      0.991244  
     133A      1.011618   134A      1.039776   135A      1.053703  
     136A      1.126420   137A      1.132916   138A      1.135761  
     139A      1.155778   140A      1.165831   141A      1.173593  
     142A      1.186036   143A      1.198097   144A      1.231333  
     145A      1.245909   146A      1.261540   147A      1.266615  
     148A      1.298661   149A      1.301714   150A      1.332693  
     151A      1.337630   152A      1.347738   153A      1.365099  
     154A      1.380774   155A      1.390357   156A      1.430682  
     157A      1.436688   158A      1.456959   159A      1.471856  
     160A      1.481886   161A      1.482818   162A      1.501893  
     163A      1.520124   164A      1.574417   165A      1.577246  
     166A      1.606030   167A      1.614997   168A      1.651161  
     169A      1.656470   170A      1.670484   171A      1.691817  
     172A      1.717711   173A      1.733012   174A      1.740670  
     175A      1.757659   176A      1.772596   177A      1.784828  
     178A      1.793122   179A      1.809030   180A      1.819291  
     181A      1.831476   182A      1.841860   183A      1.846041  
     184A      1.861515   185A      1.874852   186A      1.875555  
     187A      1.887769   188A      1.898881   189A      1.904202  
     190A      1.914838   191A      1.919954   192A      1.925444  
     193A      1.928082   194A      1.937788   195A      1.946892  
     196A      1.959782   197A      1.963369   198A      1.971584  
     199A      1.974523   200A      1.988285   201A      1.994479  
     202A      2.003286   203A      2.016422   204A      2.034821  
     205A      2.038676   206A      2.046190   207A      2.049041  
     208A      2.057951   209A      2.073613   210A      2.079862  
     211A      2.086055   212A      2.111255   213A      2.120129  
     214A      2.129388   215A      2.152920   216A      2.165829  
     217A      2.175640   218A      2.192544   219A      2.215996  
     220A      2.231064   221A      2.242841   222A      2.255594  
     223A      2.259317   224A      2.268554   225A      2.283482  
     226A      2.293121   227A      2.297602   228A      2.331394  
     229A      2.344353   230A      2.353497   231A      2.360692  
     232A      2.379709   233A      2.391297   234A      2.422261  
     235A      2.442824   236A      2.452697   237A      2.455613  
     238A      2.467880   239A      2.469962   240A      2.482818  
     241A      2.538913   242A      2.556191   243A      2.564144  
     244A      2.587993   245A      2.601407   246A      2.607901  
     247A      2.634642   248A      2.679967   249A      2.724495  
     250A      2.727544   251A      2.751551   252A      2.768392  
     253A      2.777483   254A      2.779411   255A      2.786002  
     256A      2.797688   257A      2.826415   258A      2.846666  
     259A      2.862399   260A      2.908625   261A      2.917858  
     262A      2.949383   263A      2.984893   264A      2.999308  
     265A      3.006699   266A      3.056102   267A      3.076083  
     268A      3.141891   269A      3.235596   270A      3.255991  
     271A      3.259052   272A      3.406421   273A      3.427937  
     274A      3.621315   275A      3.792619   276A      4.001335  

    Final Occupation by Irrep:
              A 
    DOCC [    51 ]

  @DF-RHF Final Energy:  -576.45881052384357

   => Energetics <=

    Nuclear Repulsion Energy =            856.2878721664725390
    One-Electron Energy =               -2481.5408100937302152
    Two-Electron Energy =                1048.7941274034142225
    Total Energy =                       -576.4588105238435674

Computation Completed


Properties will be evaluated at   0.000000,   0.000000,   0.000000 [a0]

Properties computed using the SCF density matrix

  Nuclear Dipole Moment: [e a0]
     X:     7.1806      Y:     2.6412      Z:    -1.6927

  Electronic Dipole Moment: [e a0]
     X:    -7.3861      Y:    -2.3597      Z:     1.3898

  Dipole Moment: [e a0]
     X:    -0.2054      Y:     0.2815      Z:    -0.3029     Total:     0.4617

  Dipole Moment: [D]
     X:    -0.5222      Y:     0.7154      Z:    -0.7698     Total:     1.1735


*** tstop() called on skylm002.palmetto.clemson.edu at Sat Feb 19 18:37:26 2022
Module time:
	user time   =      18.09 seconds =       0.30 minutes
	system time =       0.77 seconds =       0.01 minutes
	total time  =         19 seconds =       0.32 minutes
Total time:
	user time   =  125032.95 seconds =    2083.88 minutes
	system time =   18546.27 seconds =     309.10 minutes
	total time  =     184689 seconds =    3078.15 minutes
 MINTS: Wrapper to libmints.
   by Justin Turney

   Calculation information:
      Number of threads:                 1
      Number of atoms:                  30
      Number of AO shells:             132
      Number of SO shells:             132
      Number of primitives:            388
      Number of atomic orbitals:       290
      Number of basis functions:       276

      Number of irreps:                  1
      Integral cutoff                 1.00e-12
      Number of functions per irrep: [ 276 ]

 OEINTS: Overlap, kinetic, potential, dipole, and quadrupole integrals
         stored in file 35.

      Computing two-electron integrals...done
      Computed 392473784 non-zero two-electron integrals.
        Stored in file 33.


*** tstart() called on skylm002.palmetto.clemson.edu
*** at Sat Feb 19 18:43:41 2022


	Wfn Parameters:
	--------------------
	Wavefunction         = CCSD
	Number of irreps     = 1
	Number of MOs        = 276
	Number of active MOs = 276
	AO-Basis             = NONE
	Semicanonical        = false
	Reference            = RHF
	Print Level          = 1

	IRREP	# MOs	# FZDC	# DOCC	# SOCC	# VIRT	# FZVR
	-----	-----	------	------	------	------	------
	 A	   276	    0	    51	    0	    225	    0
	Transforming integrals...
	IWL integrals will be deleted.
	(OO|OO)...
	Presorting SO-basis two-electron integrals.
	Sorting File: SO Ints (nn|nn) nbuckets = 1
	Constructing frozen core operators
	Starting first half-transformation.
	Sorting half-transformed integrals.
	First half integral transformation complete.
	Starting second half-transformation.
	Two-electron integral transformation complete.
	(OO|OV)...
	Starting second half-transformation.
	Two-electron integral transformation complete.
	(OO|VV)...
	Starting second half-transformation.
	Two-electron integral transformation complete.
	(OV|OO)...
	Starting first half-transformation.
	Sorting half-transformed integrals.
	First half integral transformation complete.
	Starting second half-transformation.
	Two-electron integral transformation complete.
	(OV|OV)...
	Starting second half-transformation.
	Two-electron integral transformation complete.
	(OV|VV)...
	Starting second half-transformation.
	Two-electron integral transformation complete.
	(VV|OO)...
	Starting first half-transformation.
	Sorting half-transformed integrals.
	First half integral transformation complete.
	Starting second half-transformation.
	Two-electron integral transformation complete.
	(VV|OV)...
	Starting second half-transformation.
	Two-electron integral transformation complete.
	(VV|VV)...
	Starting second half-transformation.
	Two-electron integral transformation complete.
	Frozen core energy     =      0.00000000000000

	Size of irrep 0 of <ab|cd> integrals:   2562.891 (MW) /  20503.125 (MB)
	Total:                                  2562.891 (MW) /  20503.125 (MB)

	Size of irrep 0 of <ia|bc> integrals:    580.922 (MW) /   4647.375 (MB)
	Total:                                   580.922 (MW) /   4647.375 (MB)

	Size of irrep 0 of tijab amplitudes:     131.676 (MW) /   1053.405 (MB)
	Total:                                   131.676 (MW) /   1053.405 (MB)

	Nuclear Rep. energy          =    856.28787216647254
	SCF energy                   =   -576.45881052384357
	One-electron energy          =  -2481.54081004696855
	Two-electron energy          =   1048.79336859455179
	Reference energy             =   -576.45956928594421

*** tstop() called on skylm002.palmetto.clemson.edu at Sat Feb 19 18:58:46 2022
Module time:
	user time   =     375.12 seconds =       6.25 minutes
	system time =     170.49 seconds =       2.84 minutes
	total time  =        905 seconds =      15.08 minutes
Total time:
	user time   =  125670.09 seconds =    2094.50 minutes
	system time =   18726.74 seconds =     312.11 minutes
	total time  =     185969 seconds =    3099.48 minutes
            **************************
            *                        *
            *        CCENERGY        *
            *                        *
            **************************

    Nuclear Rep. energy (wfn)     =  856.287872166472539
    SCF energy          (wfn)     = -576.458810523843567
    Reference energy    (file100) = -576.459569285944212

    Input parameters:
    -----------------
    Wave function   =     CCSD
    Reference wfn   =     RHF
    Brueckner       =     No
    Memory (Mbytes) =     62000.0
    Maxiter         =     50
    R_Convergence   =     1.0e-07
    E_Convergence   =     1.0e-08
    Restart         =     Yes
    DIIS            =     Yes
    AO Basis        =     NONE
    ABCD            =     NEW
    Cache Level     =     2
    Cache Type      =     LOW
    Print Level     =     1
    Num. of threads =     1
    # Amps to Print =     10
    Print MP2 Amps? =     No
    Analyze T2 Amps =     No
    Print Pair Ener =     No
    Local CC        =     No
    SCS-MP2         =     False
    SCSN-MP2        =     False
    SCS-CCSD        =     False

    Using old T1 amplitudes.
    Using old T2 amplitudes.

MP2 correlation energy -1.9813117701855216
                Solving CC Amplitude Equations
                ------------------------------
  Iter             Energy              RMS        T1Diag      D1Diag    New D1Diag    D2Diag
  ----     ---------------------    ---------   ----------  ----------  ----------   --------
     0        -2.078847868000342    0.000e+00    0.008730    0.040294    0.040294    0.186651
     1        -2.078944039351252    6.801e-03    0.008731    0.040298    0.040298    0.186653
     2        -2.078940104075282    1.107e-03    0.008730    0.040295    0.040295    0.186653
     3        -2.078942127849277    3.020e-04    0.008730    0.040295    0.040295    0.186654
     4        -2.078942521133141    9.357e-05    0.008730    0.040294    0.040294    0.186654
     5        -2.078942537960133    2.743e-05    0.008730    0.040294    0.040294    0.186654
     6        -2.078942536895678    1.116e-05    0.008730    0.040293    0.040293    0.186654
     7        -2.078942551030843    4.245e-06    0.008730    0.040293    0.040293    0.186654
     8        -2.078942543892581    1.719e-06    0.008730    0.040293    0.040293    0.186654
     9        -2.078942545921767    6.598e-07    0.008730    0.040293    0.040293    0.186654
    10        -2.078942544267965    3.039e-07    0.008730    0.040293    0.040293    0.186654
    11        -2.078942544821359    1.365e-07    0.008730    0.040293    0.040293    0.186654
    12        -2.078942544272170    7.122e-08    0.008730    0.040293    0.040293    0.186654

    Iterations converged.


    Largest TIA Amplitudes:
             46   1        -0.0188687305
             30   1         0.0166670712
             39   1         0.0140650592
             49  49        -0.0139909067
             49  47        -0.0113606903
             49   0         0.0110392722
             49  93         0.0109241880
             30  13         0.0087022422
             42   1        -0.0086523782
             50  49        -0.0078914848

    Largest TIjAb Amplitudes:
     49  49   0   0        -0.0830833080
     50  50   1   1        -0.0712606306
     49  50   1   0         0.0450852951
     50  49   0   1         0.0450852951
     50  50   0   0        -0.0348471354
     49  49   1   1        -0.0288458402
     46  49   0  21        -0.0161695509
     49  46  21   0        -0.0161695509
     39  49   0  21        -0.0157169691
     49  39  21   0        -0.0157169691

    SCF energy       (wfn)                    = -576.458810523843567
    Reference energy (file100)                = -576.459569285944212

    Opposite-spin MP2 correlation energy      =   -1.466695805276895
    Same-spin MP2 correlation energy          =   -0.514615964908627
    Singles MP2 correlation energy            =   -0.000000000000000
    MP2 correlation energy                    =   -1.981311770185522
      * MP2 total energy                      = -578.440881056129683

    Opposite-spin CCSD correlation energy     =   -1.616300442525308
    Same-spin CCSD correlation energy         =   -0.462642101746862
    Singles CCSD correlation energy           =    0.000000000000000
    CCSD correlation energy                   =   -2.078942544272170
      * CCSD total energy                     = -578.538511830216407


			**************************
			*                        *
			*         CCHBAR         *
			*                        *
			**************************


			**************************
			*        CCLAMBDA        *
			**************************


	Nuclear Rep. energy (wfn)     =  856.287872166472539
	Reference           (wfn)     =                    0
	SCF energy          (wfn)     = -576.458810523843567
	Reference energy    (CC_INFO) = -576.459569285944212
	CCSD energy         (CC_INFO) =   -2.078942544272170
	Total CCSD energy   (CC_INFO) = -578.538511830216407

	Input parameters:
	-----------------
	Maxiter           =     50
	Convergence       = 1.0e-07
	Restart           =     No
	Cache Level       =     2
	Model III         =     No
	DIIS              =     Yes
	AO Basis          =     No
	ABCD              =     NEW
	Local CC          =     No
	Parameters for left-handed eigenvectors:
	    Irr   Root  Ground-State?    EOM energy        R0
	  1   0     0        Yes       0.0000000000   1.0000000000
	Labels for eigenvector 1:
	LIA 0 -1, Lia 0 -1, LIJAB 0 -1, Lijab 0 -1, LIjAb 0 -1, 2LIjAb - LIjbA 0 -1
	Symmetry of left-hand state: A
	Symmetry of left-hand eigenvector: A

	          Solving Lambda Equations
	          ------------------------
	Iter     PseudoEnergy or Norm         RMS  
	----     ---------------------     --------
	   0        -2.079138586209726    9.001e-08
	   1        -2.020061781866872    3.728e-02
	   2        -2.014341414418909    7.725e-03
	   3        -2.012903082675413    3.915e-03
	   4        -2.012496549928786    1.392e-03
	   5        -2.012588998688990    7.452e-04
	   6        -2.012607606750753    2.722e-04
	   7        -2.012596622488084    1.194e-04
	   8        -2.012598785131472    4.673e-05
	   9        -2.012600278169110    1.874e-05
	  10        -2.012600034308531    7.460e-06
	  11        -2.012600136166453    3.135e-06
	  12        -2.012599986510945    1.450e-06
	  13        -2.012599945076794    7.013e-07
	  14        -2.012599943254456    3.666e-07
	  15        -2.012599939536953    1.868e-07
	  16        -2.012599940209686    8.998e-08

	Largest LIA Amplitudes:
	         46   1        -0.0124448045
	         49  49        -0.0111672378
	         30   1         0.0109304577
	         39   1         0.0102036470
	         49  47        -0.0090224842
	         49  93         0.0087942296
	         49   0         0.0083502841
	         50  49        -0.0060343165
	         42   1        -0.0057609449
	         30  13         0.0056687969

	Largest LIjAb Amplitudes:
	 49  49   0   0        -0.0782989628
	 50  50   1   1        -0.0667476561
	 49  50   1   0         0.0426902286
	 50  49   0   1         0.0426902286
	 50  50   0   0        -0.0308732913
	 49  49   1   1        -0.0259388514
	 46  49   0  21        -0.0152996696
	 49  46  21   0        -0.0152996696
	 39  49   0  21        -0.0149961803
	 49  39  21   0        -0.0149961803

	Iterations converged.

	Overlap <L|e^T> =        0.23367946899

			**************************
			*                        *
			*        CCDENSITY       *
			*                        *
			**************************


	Input parameters:
	-----------------
	Wave function    =   CCSD
	Reference wfn    =   RHF
	Dertype          = 1
	Tolerance        = 1.0e-14
	Cache Level      = 2
	AO Basis         = No
	OPDM Only        = No
	Relax OPDM       = Yes
	Compute Xi       = No
	Use Zeta         = No
	Xi connected     = Yes
	Compute NO       = No

	Nuclear Rep. energy (wfn)     =  856.287872166472539
	SCF energy          (wfn)     = -576.458810523843567
	Reference energy    (file100) = -576.459569285944212
	CCSD energy         (CC_INFO) =   -2.078942544272170
	Total CCSD energy   (CC_INFO) = -578.538511830216407
	Number of States = 1

	Ground?  State     EOM Energy       R0
	  Yes     0  A    0.0000000000   1.00000000

	Virial Theorem Data:
	--------------------
	Kinetic energy (ref)   =  575.482550791430185
	Kinetic energy (corr)  =    1.969445900826067
	Kinetic energy (total) =  577.451996692256216
	-V/T (ref)             =    2.001697737825709
	-V/T (corr)            =    2.055597690396155
	-V/T (total)           =    2.001881567895139
    Molecular point group: c1
    Full point group: C1

    Geometry (in Bohr), charge = 0, multiplicity = 1:

       Center              X                  Y                   Z       
    ------------   -----------------  -----------------  -----------------
         C            3.993315097512     0.998444135456    -3.568867684708
         C            3.069741617056     0.865661236518    -0.859631510287
         C            4.571623877738     2.481691818986     1.054038342822
         C            6.850141584720     0.818563255345     1.816458050116
         C            7.463131088917    -0.775507536201    -0.556977078996
         C            4.903091348287    -1.126303884747    -1.870223819600
         C            0.350761724207     0.270803601985    -0.306401733186
         C           -0.287202285140    -1.444015999156     1.641843845252
         C           -2.801969897186    -1.964604131634     2.237144110973
         C           -4.775290460830    -0.776138980698     0.892150056666
         C           -4.182469644819     0.932397969952    -1.046389726561
         C           -1.629766076615     1.437980857546    -1.618206944968
         H           -1.191446978535     2.782491493818    -3.129863781704
         H           -5.659177834896     1.886238806886    -2.127223464112
         O           -7.167621880375    -1.427135407984     1.624187644453
         H           -3.302868123230    -3.297980076668     3.735326753162
         H            1.223374108181    -2.394612508576     2.692863005287
         H            4.219944136178    -3.036140199208    -2.279173623478
         H            2.648997846291     0.505748756253    -5.062373316758
         H            5.344566955003     2.487752728826    -4.068760778127
         H            8.332251602850    -2.604902515860    -0.061917884304
         H            8.809179058576     0.227011538669    -1.803531889857
         H            6.256976885267    -0.467459914675     3.354998369644
         H            8.478872076459     1.920620699845     2.515544597369
         H            3.390876776995     2.992694492581     2.693247302580
         H            5.209339397379     4.265625807609     0.169696546169
         C           -9.190047313322    -0.264481046947     0.307432111691
         H          -10.933674199849    -1.013838556969     1.154024416768
         H           -9.158782245022     1.814194822006     0.525488847072
         H           -9.157208160360    -0.736149492222    -1.728739334351

	Presorting MO-basis TPDM.
	Sorting File: MO TPDM (AA|AA) nbuckets = 1
	Starting first half-transformation.
