
    -----------------------------------------------------------------------
          Psi4: An Open-Source Ab Initio Electronic Structure Package
                               Psi4 1.4 release

                         Git: Rev {HEAD} 9485035 


    D. G. A. Smith, L. A. Burns, A. C. Simmonett, R. M. Parrish,
    M. C. Schieber, R. Galvelis, P. Kraus, H. Kruse, R. Di Remigio,
    A. Alenaizan, A. M. James, S. Lehtola, J. P. Misiewicz, M. Scheurer,
    R. A. Shaw, J. B. Schriber, Y. Xie, Z. L. Glick, D. A. Sirianni,
    J. S. O'Brien, J. M. Waldrop, A. Kumar, E. G. Hohenstein,
    B. P. Pritchard, B. R. Brooks, H. F. Schaefer III, A. Yu. Sokolov,
    K. Patkowski, A. E. DePrince III, U. Bozkaya, R. A. King,
    F. A. Evangelista, J. M. Turney, T. D. Crawford, C. D. Sherrill,
    J. Chem. Phys. 152(18) 184108 (2020). https://doi.org/10.1063/5.0006002

                            Additional Code Authors
    E. T. Seidl, C. L. Janssen, E. F. Valeev, M. L. Leininger,
    J. F. Gonthier, R. M. Richard, H. R. McAlexander, M. Saitow, X. Wang,
    P. Verma, and M. H. Lechner

             Previous Authors, Complete List of Code Contributors,
                       and Citations for Specific Modules
    https://github.com/psi4/psi4/blob/master/codemeta.json
    https://github.com/psi4/psi4/graphs/contributors
    http://psicode.org/psi4manual/master/introduction.html#citing-psifour

    -----------------------------------------------------------------------


    Psi4 started on: Tuesday, 18 January 2022 11:01PM

    Process ID: 3053847
    Host:       skystd25.palmetto.clemson.edu
    PSIDATADIR: /home/maxbuskirk/.conda/envs/psifour/share/psi4
    Memory:     500.0 MiB
    Threads:    1
    
  ==> Input File <==

--------------------------------------------------------------------------
molecule mol {
0 1
 C     0.355130     0.111221    -1.467412
 C    -0.000000    -0.000000     0.000000
 C     0.828100     0.881905     0.953535
 C     2.091555     0.051810     1.254924
 C     2.370953    -0.722993    -0.049363
 C     0.983556    -0.988346    -0.633510
 C    -1.373576    -0.413221     0.414448
 C    -1.542792    -1.321567     1.480545
 C    -2.825059    -1.692334     1.911870
 C    -3.961673    -1.159299     1.279913
 C    -3.805653    -0.253936     0.218219
 C    -2.519836     0.117392    -0.208007
 H    -2.398432     0.829298    -1.030811
 H    -4.686419     0.165723    -0.277661
 O    -5.224199    -1.526822     1.698665
 H    -2.939181    -2.402495     2.736730
 H    -0.656700    -1.746978     1.964470
 H     0.659437    -2.015061    -0.827996
 H    -0.405740    -0.188168    -2.193765
 H     0.996446     0.943276    -1.777222
 H     2.921789    -1.659184     0.134099
 H     2.979683    -0.115336    -0.742780
 H     1.856488    -0.672951     2.054626
 H     2.945544     0.661232     1.596113
 H     0.256631     1.122533     1.863868
 H     1.092347     1.837771     0.466059
 C    -6.184001    -0.867876     0.921124
 H    -7.180299    -1.157899     1.251575
 H    -6.063944     0.208814     1.031793
 H    -6.054349    -1.141975    -0.124811
}

set scf_type df
set basis cc-pVDZ
set reference rhf

mol.update_geometry()
mol.symmetrize(1e-3)

e, wfn = optimize('CCSD', return_wfn=True)
oeprop(wfn, "MULLIKEN_CHARGES")
mol.print_out()
print_variables()
--------------------------------------------------------------------------

Scratch directory: /scratch1/maxbuskirk/
gradient() will perform analytic gradient computation.

*** tstart() called on skystd25.palmetto.clemson.edu
*** at Tue Jan 18 23:01:39 2022

   => Loading Basis Set <=

    Name: CC-PVDZ
    Role: ORBITAL
    Keyword: BASIS
    atoms 1-12, 27            entry C          line   138 file /home/maxbuskirk/.conda/envs/psifour/share/psi4/basis/cc-pvdz.gbs 
    atoms 13-14, 16-26, 28-30 entry H          line    22 file /home/maxbuskirk/.conda/envs/psifour/share/psi4/basis/cc-pvdz.gbs 
    atoms 15                  entry O          line   198 file /home/maxbuskirk/.conda/envs/psifour/share/psi4/basis/cc-pvdz.gbs 


         ---------------------------------------------------------
                                   SCF
               by Justin Turney, Rob Parrish, Andy Simmonett
                          and Daniel G. A. Smith
                              RHF Reference
                        1 Threads,    500 MiB Core
         ---------------------------------------------------------

  ==> Geometry <==

    Molecular point group: c1
    Full point group: C1

    Geometry (in Angstrom), charge = 0, multiplicity = 1:

       Center              X                  Y                   Z               Mass       
    ------------   -----------------  -----------------  -----------------  -----------------
         C            1.882703824103     0.668744759916    -2.032251349099    12.000000000000
         C            1.527573824103     0.557523759916    -0.564839349099    12.000000000000
         C            2.355673824103     1.439428759916     0.388695650901    12.000000000000
         C            3.619128824103     0.609333759916     0.690084650901    12.000000000000
         C            3.898526824103    -0.165469240084    -0.614202349099    12.000000000000
         C            2.511129824103    -0.430822240084    -1.198349349099    12.000000000000
         C            0.153997824103     0.144302759916    -0.150391349099    12.000000000000
         C           -0.015218175897    -0.764043240084     0.915705650901    12.000000000000
         C           -1.297485175897    -1.134810240084     1.347030650901    12.000000000000
         C           -2.434099175897    -0.601775240084     0.715073650901    12.000000000000
         C           -2.278079175897     0.303587759916    -0.346620349099    12.000000000000
         C           -0.992262175897     0.674915759916    -0.772846349099    12.000000000000
         H           -0.870858175897     1.386821759916    -1.595650349099     1.007825032230
         H           -3.158845175897     0.723246759916    -0.842500349099     1.007825032230
         O           -3.696625175897    -0.969298240084     1.133825650901    15.994914619570
         H           -1.411607175897    -1.844971240084     2.171890650901     1.007825032230
         H            0.870873824103    -1.189454240084     1.399630650901     1.007825032230
         H            2.187010824103    -1.457537240084    -1.392835349099     1.007825032230
         H            1.121833824103     0.369355759916    -2.758604349099     1.007825032230
         H            2.524019824103     1.500799759916    -2.342061349099     1.007825032230
         H            4.449362824103    -1.101660240084    -0.430740349099     1.007825032230
         H            4.507256824103     0.442187759916    -1.307619349099     1.007825032230
         H            3.384061824103    -0.115427240084     1.489786650901     1.007825032230
         H            4.473117824103     1.218755759916     1.031273650901     1.007825032230
         H            1.784204824103     1.680056759916     1.299028650901     1.007825032230
         H            2.619920824103     2.395294759916    -0.098780349099     1.007825032230
         C           -4.656427175897    -0.310352240084     0.356284650901    12.000000000000
         H           -5.652725175897    -0.600375240084     0.686735650901     1.007825032230
         H           -4.536370175897     0.766337759916     0.466953650901     1.007825032230
         H           -4.526775175897    -0.584451240084    -0.689650349099     1.007825032230

  Running in c1 symmetry.

  Rotational constants: A =      0.06986  B =      0.01117  C =      0.01049 [cm^-1]
  Rotational constants: A =   2094.25887  B =    334.79267  C =    314.40141 [MHz]
  Nuclear repulsion =  862.218940092971707

  Charge       = 0
  Multiplicity = 1
  Electrons    = 102
  Nalpha       = 51
  Nbeta        = 51

  ==> Algorithm <==

  SCF Algorithm Type is DF.
  DIIS enabled.
  MOM disabled.
  Fractional occupation disabled.
  Guess Type is SAD.
  Energy threshold   = 1.00e-10
  Density threshold  = 1.00e-10
  Integral threshold = 1.00e-12

  ==> Primary Basis <==

  Basis Set: CC-PVDZ
    Blend: CC-PVDZ
    Number of shells: 132
    Number of basis functions: 276
    Number of Cartesian functions: 290
    Spherical Harmonics?: true
    Max angular momentum: 2

   => Loading Basis Set <=

    Name: (CC-PVDZ AUX)
    Role: JKFIT
    Keyword: DF_BASIS_SCF
    atoms 1-12, 27            entry C          line   121 file /home/maxbuskirk/.conda/envs/psifour/share/psi4/basis/cc-pvdz-jkfit.gbs 
    atoms 13-14, 16-26, 28-30 entry H          line    51 file /home/maxbuskirk/.conda/envs/psifour/share/psi4/basis/cc-pvdz-jkfit.gbs 
    atoms 15                  entry O          line   221 file /home/maxbuskirk/.conda/envs/psifour/share/psi4/basis/cc-pvdz-jkfit.gbs 

  ==> Integral Setup <==

  ==> DiskDFJK: Density-Fitted J/K Matrices <==

    J tasked:                  Yes
    K tasked:                  Yes
    wK tasked:                  No
    OpenMP threads:              1
    Integrals threads:           1
    Memory [MiB]:              375
    Algorithm:                Core
    Integral Cache:           NONE
    Schwarz Cutoff:          1E-12
    Fitting Condition:       1E-10

   => Auxiliary Basis Set <=

  Basis Set: (CC-PVDZ AUX)
    Blend: CC-PVDZ-JKFIT
    Number of shells: 480
    Number of basis functions: 1348
    Number of Cartesian functions: 1534
    Spherical Harmonics?: true
    Max angular momentum: 3

  Minimum eigenvalue in the overlap matrix is 3.3124133721E-04.
  Reciprocal condition number of the overlap matrix is 4.7843353131E-05.
    Using symmetric orthogonalization.

  ==> Pre-Iterations <==

  SCF Guess: Superposition of Atomic Densities via on-the-fly atomic UHF (no occupation information).

   -------------------------
    Irrep   Nso     Nmo    
   -------------------------
     A        276     276 
   -------------------------
    Total     276     276
   -------------------------

  ==> Iterations <==

                           Total Energy        Delta E     RMS |[F,P]|

   @DF-RHF iter SAD:  -576.14285792212831   -5.76143e+02   0.00000e+00 
   @DF-RHF iter   1:  -576.16979139408591   -2.69335e-02   2.25877e-03 DIIS
   @DF-RHF iter   2:  -576.40157792451691   -2.31787e-01   9.97554e-04 DIIS
   @DF-RHF iter   3:  -576.44132028365004   -3.97424e-02   2.86456e-04 DIIS
   @DF-RHF iter   4:  -576.44565793807976   -4.33765e-03   1.07695e-04 DIIS
   @DF-RHF iter   5:  -576.44617425672504   -5.16319e-04   2.11709e-05 DIIS
   @DF-RHF iter   6:  -576.44620088321449   -2.66265e-05   7.27991e-06 DIIS
   @DF-RHF iter   7:  -576.44620411180085   -3.22859e-06   2.08172e-06 DIIS
   @DF-RHF iter   8:  -576.44620451891126   -4.07110e-07   6.95570e-07 DIIS
   @DF-RHF iter   9:  -576.44620457226358   -5.33523e-08   2.56473e-07 DIIS
   @DF-RHF iter  10:  -576.44620457983331   -7.56972e-09   1.03488e-07 DIIS
   @DF-RHF iter  11:  -576.44620458176757   -1.93427e-09   5.33770e-08 DIIS
   @DF-RHF iter  12:  -576.44620458231225   -5.44674e-10   2.45523e-08 DIIS
   @DF-RHF iter  13:  -576.44620458246209   -1.49839e-10   8.52014e-09 DIIS
   @DF-RHF iter  14:  -576.44620458247687   -1.47793e-11   2.69754e-09 DIIS
   @DF-RHF iter  15:  -576.44620458247721   -3.41061e-13   8.19892e-10 DIIS
   @DF-RHF iter  16:  -576.44620458247914   -1.93268e-12   3.92637e-10 DIIS
   @DF-RHF iter  17:  -576.44620458247743    1.70530e-12   2.25539e-10 DIIS
   @DF-RHF iter  18:  -576.44620458247709    3.41061e-13   1.05426e-10 DIIS
   @DF-RHF iter  19:  -576.44620458247675    3.41061e-13   4.51627e-11 DIIS
  Energy and wave function converged.


  ==> Post-Iterations <==

    Orbital Energies [Eh]
    ---------------------

    Doubly Occupied:                                                      

       1A    -20.584610     2A    -11.300297     3A    -11.281967  
       4A    -11.242850     5A    -11.241851     6A    -11.236871  
       7A    -11.236227     8A    -11.235458     9A    -11.234162  
      10A    -11.230643    11A    -11.229287    12A    -11.226537  
      13A    -11.225750    14A    -11.225050    15A     -1.413458  
      16A     -1.179925    17A     -1.133878    18A     -1.034880  
      19A     -1.014590    20A     -1.009810    21A     -0.957022  
      22A     -0.937025    23A     -0.845675    24A     -0.818483  
      25A     -0.808681    26A     -0.771684    27A     -0.737029  
      28A     -0.712210    29A     -0.675921    30A     -0.661397  
      31A     -0.657802    32A     -0.629596    33A     -0.621691  
      34A     -0.592772    35A     -0.584451    36A     -0.572408  
      37A     -0.565887    38A     -0.561133    39A     -0.539523  
      40A     -0.520462    41A     -0.513303    42A     -0.481019  
      43A     -0.478067    44A     -0.476541    45A     -0.468886  
      46A     -0.466030    47A     -0.451471    48A     -0.404374  
      49A     -0.383054    50A     -0.334452    51A     -0.299173  

    Virtual:                                                              

      52A      0.127681    53A      0.149016    54A      0.178406  
      55A      0.191129    56A      0.201624    57A      0.210369  
      58A      0.213217    59A      0.233375    60A      0.236428  
      61A      0.248579    62A      0.252827    63A      0.259162  
      64A      0.264832    65A      0.269995    66A      0.273022  
      67A      0.287422    68A      0.302838    69A      0.307539  
      70A      0.324161    71A      0.342064    72A      0.351831  
      73A      0.361003    74A      0.375377    75A      0.395895  
      76A      0.411526    77A      0.417058    78A      0.446185  
      79A      0.463262    80A      0.478554    81A      0.496264  
      82A      0.514870    83A      0.525110    84A      0.536445  
      85A      0.591685    86A      0.623536    87A      0.624802  
      88A      0.631114    89A      0.641567    90A      0.662016  
      91A      0.667453    92A      0.674303    93A      0.681432  
      94A      0.694868    95A      0.712786    96A      0.714527  
      97A      0.716765    98A      0.728230    99A      0.739355  
     100A      0.743267   101A      0.748121   102A      0.751868  
     103A      0.763732   104A      0.791251   105A      0.793607  
     106A      0.814818   107A      0.825842   108A      0.836360  
     109A      0.843180   110A      0.850746   111A      0.855967  
     112A      0.865964   113A      0.869343   114A      0.874113  
     115A      0.877503   116A      0.889813   117A      0.892630  
     118A      0.898045   119A      0.904551   120A      0.907410  
     121A      0.907998   122A      0.912886   123A      0.920722  
     124A      0.926068   125A      0.935479   126A      0.940916  
     127A      0.953892   128A      0.956032   129A      0.963742  
     130A      0.975601   131A      0.976021   132A      1.009625  
     133A      1.021900   134A      1.049264   135A      1.055565  
     136A      1.118700   137A      1.123506   138A      1.138966  
     139A      1.157248   140A      1.165709   141A      1.173457  
     142A      1.193526   143A      1.223268   144A      1.240071  
     145A      1.252122   146A      1.270228   147A      1.277361  
     148A      1.299045   149A      1.301339   150A      1.333028  
     151A      1.340323   152A      1.360735   153A      1.367079  
     154A      1.378924   155A      1.397164   156A      1.424787  
     157A      1.428158   158A      1.456760   159A      1.474978  
     160A      1.475745   161A      1.487683   162A      1.499945  
     163A      1.522232   164A      1.558466   165A      1.594220  
     166A      1.599267   167A      1.614992   168A      1.647157  
     169A      1.662022   170A      1.677185   171A      1.699475  
     172A      1.722619   173A      1.730869   174A      1.748304  
     175A      1.760515   176A      1.779656   177A      1.783786  
     178A      1.789335   179A      1.815787   180A      1.820130  
     181A      1.831299   182A      1.843073   183A      1.846358  
     184A      1.872879   185A      1.875654   186A      1.883615  
     187A      1.887994   188A      1.901796   189A      1.907859  
     190A      1.914737   191A      1.922466   192A      1.930642  
     193A      1.939340   194A      1.942352   195A      1.956257  
     196A      1.959894   197A      1.968743   198A      1.973168  
     199A      1.976718   200A      1.994538   201A      2.001413  
     202A      2.014147   203A      2.023031   204A      2.035440  
     205A      2.042329   206A      2.046005   207A      2.053982  
     208A      2.067868   209A      2.077374   210A      2.082064  
     211A      2.094020   212A      2.113494   213A      2.120456  
     214A      2.133767   215A      2.156671   216A      2.181891  
     217A      2.192832   218A      2.212523   219A      2.233384  
     220A      2.236981   221A      2.238415   222A      2.250513  
     223A      2.263696   224A      2.268162   225A      2.290888  
     226A      2.294899   227A      2.303804   228A      2.338343  
     229A      2.356797   230A      2.365047   231A      2.377961  
     232A      2.389701   233A      2.400032   234A      2.430660  
     235A      2.449903   236A      2.458477   237A      2.464889  
     238A      2.473964   239A      2.486078   240A      2.506244  
     241A      2.544634   242A      2.557671   243A      2.571359  
     244A      2.600258   245A      2.613012   246A      2.641006  
     247A      2.648202   248A      2.686312   249A      2.725316  
     250A      2.753783   251A      2.769253   252A      2.778210  
     253A      2.780299   254A      2.787652   255A      2.801915  
     256A      2.811081   257A      2.848531   258A      2.860926  
     259A      2.876502   260A      2.917727   261A      2.922086  
     262A      2.947290   263A      2.991233   264A      3.002154  
     265A      3.014080   266A      3.055373   267A      3.083700  
     268A      3.146891   269A      3.236265   270A      3.262964  
     271A      3.293192   272A      3.388263   273A      3.478429  
     274A      3.627762   275A      3.756956   276A      3.998937  

    Final Occupation by Irrep:
              A 
    DOCC [    51 ]

  @DF-RHF Final Energy:  -576.44620458247675

   => Energetics <=

    Nuclear Repulsion Energy =            862.2189400929717067
    One-Electron Energy =               -2493.2396452445377690
    Two-Electron Energy =                1054.5745005690891958
    Total Energy =                       -576.4462045824768666

Computation Completed


Properties will be evaluated at   0.000000,   0.000000,   0.000000 [a0]

Properties computed using the SCF density matrix

  Nuclear Dipole Moment: [e a0]
     X:     7.2612      Y:     3.3599      Z:    -2.7255

  Electronic Dipole Moment: [e a0]
     X:    -7.3435      Y:    -3.0441      Z:     2.3663

  Dipole Moment: [e a0]
     X:    -0.0823      Y:     0.3158      Z:    -0.3592     Total:     0.4853

  Dipole Moment: [D]
     X:    -0.2092      Y:     0.8026      Z:    -0.9130     Total:     1.2335


*** tstop() called on skystd25.palmetto.clemson.edu at Tue Jan 18 23:02:03 2022
Module time:
	user time   =      23.05 seconds =       0.38 minutes
	system time =       0.79 seconds =       0.01 minutes
	total time  =         24 seconds =       0.40 minutes
Total time:
	user time   =      23.05 seconds =       0.38 minutes
	system time =       0.79 seconds =       0.01 minutes
	total time  =         24 seconds =       0.40 minutes
 MINTS: Wrapper to libmints.
   by Justin Turney

   Calculation information:
      Number of threads:                 1
      Number of atoms:                  30
      Number of AO shells:             132
      Number of SO shells:             132
      Number of primitives:            388
      Number of atomic orbitals:       290
      Number of basis functions:       276

      Number of irreps:                  1
      Integral cutoff                 1.00e-12
      Number of functions per irrep: [ 276 ]

 OEINTS: Overlap, kinetic, potential, dipole, and quadrupole integrals
         stored in file 35.

      Computing two-electron integrals...done
      Computed 401583972 non-zero two-electron integrals.
        Stored in file 33.


*** tstart() called on skystd25.palmetto.clemson.edu
*** at Tue Jan 18 23:09:46 2022


	Wfn Parameters:
	--------------------
	Wavefunction         = CCSD
	Number of irreps     = 1
	Number of MOs        = 276
	Number of active MOs = 276
	AO-Basis             = NONE
	Semicanonical        = false
	Reference            = RHF
	Print Level          = 1

	IRREP	# MOs	# FZDC	# DOCC	# SOCC	# VIRT	# FZVR
	-----	-----	------	------	------	------	------
	 A	   276	    0	    51	    0	    225	    0
	Transforming integrals...
	IWL integrals will be deleted.
	(OO|OO)...
	Presorting SO-basis two-electron integrals.
	Sorting File: SO Ints (nn|nn) nbuckets = 23
	Constructing frozen core operators
	Starting first half-transformation.
	Sorting half-transformed integrals.
	First half integral transformation complete.
	Starting second half-transformation.
	Two-electron integral transformation complete.
	(OO|OV)...
	Starting second half-transformation.
	Two-electron integral transformation complete.
	(OO|VV)...
	Starting second half-transformation.
	Two-electron integral transformation complete.
	(OV|OO)...
	Starting first half-transformation.
	Sorting half-transformed integrals.
	First half integral transformation complete.
	Starting second half-transformation.
	Two-electron integral transformation complete.
	(OV|OV)...
	Starting second half-transformation.
	Two-electron integral transformation complete.
	(OV|VV)...
	Starting second half-transformation.
	Two-electron integral transformation complete.
	(VV|OO)...
	Starting first half-transformation.
	Sorting half-transformed integrals.
	First half integral transformation complete.
	Starting second half-transformation.
	Two-electron integral transformation complete.
	(VV|OV)...
	Starting second half-transformation.
	Two-electron integral transformation complete.
	(VV|VV)...
	Starting second half-transformation.
	Two-electron integral transformation complete.
	Frozen core energy     =      0.00000000000000

	Size of irrep 0 of <ab|cd> integrals:   2562.891 (MW) /  20503.125 (MB)
	Total:                                  2562.891 (MW) /  20503.125 (MB)

	Size of irrep 0 of <ia|bc> integrals:    580.922 (MW) /   4647.375 (MB)
	Total:                                   580.922 (MW) /   4647.375 (MB)

	Size of irrep 0 of tijab amplitudes:     131.676 (MW) /   1053.405 (MB)
	Total:                                   131.676 (MW) /   1053.405 (MB)

