
    -----------------------------------------------------------------------
          Psi4: An Open-Source Ab Initio Electronic Structure Package
                               Psi4 1.4 release

                         Git: Rev {HEAD} 9485035 


    D. G. A. Smith, L. A. Burns, A. C. Simmonett, R. M. Parrish,
    M. C. Schieber, R. Galvelis, P. Kraus, H. Kruse, R. Di Remigio,
    A. Alenaizan, A. M. James, S. Lehtola, J. P. Misiewicz, M. Scheurer,
    R. A. Shaw, J. B. Schriber, Y. Xie, Z. L. Glick, D. A. Sirianni,
    J. S. O'Brien, J. M. Waldrop, A. Kumar, E. G. Hohenstein,
    B. P. Pritchard, B. R. Brooks, H. F. Schaefer III, A. Yu. Sokolov,
    K. Patkowski, A. E. DePrince III, U. Bozkaya, R. A. King,
    F. A. Evangelista, J. M. Turney, T. D. Crawford, C. D. Sherrill,
    J. Chem. Phys. 152(18) 184108 (2020). https://doi.org/10.1063/5.0006002

                            Additional Code Authors
    E. T. Seidl, C. L. Janssen, E. F. Valeev, M. L. Leininger,
    J. F. Gonthier, R. M. Richard, H. R. McAlexander, M. Saitow, X. Wang,
    P. Verma, and M. H. Lechner

             Previous Authors, Complete List of Code Contributors,
                       and Citations for Specific Modules
    https://github.com/psi4/psi4/blob/master/codemeta.json
    https://github.com/psi4/psi4/graphs/contributors
    http://psicode.org/psi4manual/master/introduction.html#citing-psifour

    -----------------------------------------------------------------------


    Psi4 started on: Thursday, 14 October 2021 04:11PM

    Process ID: 2956638
    Host:       skystd39.palmetto.clemson.edu
    PSIDATADIR: /home/maxbuskirk/.conda/envs/psifour/share/psi4
    Memory:     500.0 MiB
    Threads:    1
    
  ==> Input File <==

--------------------------------------------------------------------------
memory 32 GB

molecule mol {
1 1
C    0.00000000  0.00000000  0.00000000
C   -0.35513000 -0.11122100  1.46741200
C    0.47297000  0.77068400  2.42094700
C    1.73642500 -0.05941100  2.72233600
C    2.01582300 -0.83421400  1.41804900
C    0.62842600 -1.09956700  0.83390200
H    0.30430700 -2.12628200  0.63941600
H    2.56665900 -1.77040500  1.60151100
H    2.62455300 -0.22655700  0.72463200
H    1.50135800 -0.78417200  3.52203800
H    2.59041400  0.55001100  3.06352500
H   -0.09849900  1.01131200  3.33128000
H    0.73721700  1.72655000  1.93347100
C   -1.72870600 -0.52444200  1.88186000
C   -1.89792200 -1.43278800  2.94795700
C   -3.18018900 -1.80355500  3.37928200
C   -4.31680300 -1.27052000  2.74732500
C   -4.16078300 -0.36515700  1.68563100
C   -2.87496600  0.00617100  1.25940500
H   -2.75356200  0.71807700  0.43660100
H   -5.04154900  0.05450200  1.18975100
H   -5.31770600 -1.56188400  3.07930300
H   -3.29431100 -2.51371600  4.20414200
H   -1.01183000 -1.85819900  3.43188200
H   -0.76087000 -0.29938900 -0.72635300
H    0.64131600  0.83205500 -0.30981000
H   -0.29164731  1.09415690 -0.62884322
}

set scf_type df
set opt_type ts
set basis cc-pVDZ
set reference rhf
set geom_maxiter 400


mol.update_geometry()
mol.symmetrize(1e-3)

e, wfn = optimize('mp2', return_wfn=True)
oeprop(wfn, "MULLIKEN_CHARGES")
mol.print_out()
print_variables()
--------------------------------------------------------------------------

  Memory set to  29.802 GiB by Python driver.

Scratch directory: /tmp/
gradient() will perform analytic gradient computation.

*** tstart() called on skystd39.palmetto.clemson.edu
*** at Thu Oct 14 16:11:04 2021

   => Loading Basis Set <=

    Name: CC-PVDZ
    Role: ORBITAL
    Keyword: BASIS
    atoms 1-6, 14-19  entry C          line   138 file /home/maxbuskirk/.conda/envs/psifour/share/psi4/basis/cc-pvdz.gbs 
    atoms 7-13, 20-27 entry H          line    22 file /home/maxbuskirk/.conda/envs/psifour/share/psi4/basis/cc-pvdz.gbs 


         ---------------------------------------------------------
                                   SCF
               by Justin Turney, Rob Parrish, Andy Simmonett
                          and Daniel G. A. Smith
                              RHF Reference
                        1 Threads,  30517 MiB Core
         ---------------------------------------------------------

  ==> Geometry <==

    Molecular point group: c1
    Full point group: C1

    Geometry (in Angstrom), charge = 1, multiplicity = 1:

       Center              X                  Y                   Z               Mass       
    ------------   -----------------  -----------------  -----------------  -----------------
         C            1.078410905848     0.539743127276    -1.878244263798    12.000000000000
         C            0.723280905848     0.428522127276    -0.410832263798    12.000000000000
         C            1.551380905848     1.310427127276     0.542702736202    12.000000000000
         C            2.814835905848     0.480332127276     0.844091736202    12.000000000000
         C            3.094233905848    -0.294470872724    -0.460195263798    12.000000000000
         C            1.706836905848    -0.559823872724    -1.044342263798    12.000000000000
         H            1.382717905848    -1.586538872724    -1.238828263798     1.007825032230
         H            3.645069905848    -1.230661872724    -0.276733263798     1.007825032230
         H            3.702963905848     0.313186127276    -1.153612263798     1.007825032230
         H            2.579768905848    -0.244428872724     1.643793736202     1.007825032230
         H            3.668824905848     1.089754127276     1.185280736202     1.007825032230
         H            0.979911905848     1.551055127276     1.453035736202     1.007825032230
         H            1.815627905848     2.266293127276     0.055226736202     1.007825032230
         C           -0.650295094152     0.015301127276     0.003615736202    12.000000000000
         C           -0.819511094152    -0.893044872724     1.069712736202    12.000000000000
         C           -2.101778094152    -1.263811872724     1.501037736202    12.000000000000
         C           -3.238392094152    -0.730776872724     0.869080736202    12.000000000000
         C           -3.082372094152     0.174586127276    -0.192613263798    12.000000000000
         C           -1.796555094152     0.545914127276    -0.618839263798    12.000000000000
         H           -1.675151094152     1.257820127276    -1.441643263798     1.007825032230
         H           -3.963138094152     0.594245127276    -0.688493263798     1.007825032230
         H           -4.239295094152    -1.022140872724     1.201058736202     1.007825032230
         H           -2.215900094152    -1.973972872724     2.325897736202     1.007825032230
         H            0.066580905848    -1.318455872724     1.553637736202     1.007825032230
         H            0.317540905848     0.240354127276    -2.604597263798     1.007825032230
         H            1.719726905848     1.371798127276    -2.188054263798     1.007825032230
         H            0.786763595848     1.633900027276    -2.507087483798     1.007825032230

  Running in c1 symmetry.

  Rotational constants: A =      0.07185  B =      0.02011  C =      0.01805 [cm^-1]
  Rotational constants: A =   2154.04665  B =    602.97522  C =    541.17343 [MHz]
  Nuclear repulsion =  680.274495281779423

  Charge       = 1
  Multiplicity = 1
  Electrons    = 86
  Nalpha       = 43
  Nbeta        = 43

  ==> Algorithm <==

  SCF Algorithm Type is DF.
  DIIS enabled.
  MOM disabled.
  Fractional occupation disabled.
  Guess Type is SAD.
  Energy threshold   = 1.00e-10
  Density threshold  = 1.00e-10
  Integral threshold = 1.00e-12

  ==> Primary Basis <==

  Basis Set: CC-PVDZ
    Blend: CC-PVDZ
    Number of shells: 117
    Number of basis functions: 243
    Number of Cartesian functions: 255
    Spherical Harmonics?: true
    Max angular momentum: 2

   => Loading Basis Set <=

    Name: (CC-PVDZ AUX)
    Role: JKFIT
    Keyword: DF_BASIS_SCF
    atoms 1-6, 14-19  entry C          line   121 file /home/maxbuskirk/.conda/envs/psifour/share/psi4/basis/cc-pvdz-jkfit.gbs 
    atoms 7-13, 20-27 entry H          line    51 file /home/maxbuskirk/.conda/envs/psifour/share/psi4/basis/cc-pvdz-jkfit.gbs 

  ==> Integral Setup <==

  DFHelper Memory: AOs need 0.498 GiB; user supplied 22.352 GiB. Using in-core AOs.

  ==> MemDFJK: Density-Fitted J/K Matrices <==

    J tasked:                   Yes
    K tasked:                   Yes
    wK tasked:                   No
    OpenMP threads:               1
    Memory [MiB]:             22888
    Algorithm:                 Core
    Schwarz Cutoff:           1E-12
    Mask sparsity (%):       8.2745
    Fitting Condition:        1E-10

   => Auxiliary Basis Set <=

  Basis Set: (CC-PVDZ AUX)
    Blend: CC-PVDZ-JKFIT
    Number of shells: 423
    Number of basis functions: 1185
    Number of Cartesian functions: 1347
    Spherical Harmonics?: true
    Max angular momentum: 3

  Minimum eigenvalue in the overlap matrix is 3.2565005104E-04.
  Reciprocal condition number of the overlap matrix is 4.6236302196E-05.
    Using symmetric orthogonalization.

  ==> Pre-Iterations <==

  SCF Guess: Superposition of Atomic Densities via on-the-fly atomic UHF (no occupation information).

   -------------------------
    Irrep   Nso     Nmo    
   -------------------------
     A        243     243 
   -------------------------
    Total     243     243
   -------------------------

  ==> Iterations <==

                           Total Energy        Delta E     RMS |[F,P]|

   @DF-RHF iter SAD:  -463.04278312448446   -4.63043e+02   0.00000e+00 
   @DF-RHF iter   1:  -462.52531306232459    5.17470e-01   2.38383e-03 DIIS
   @DF-RHF iter   2:  -462.74328762617790   -2.17975e-01   1.03284e-03 DIIS
   @DF-RHF iter   3:  -462.77773787548574   -3.44502e-02   2.79568e-04 DIIS
   @DF-RHF iter   4:  -462.78140953654878   -3.67166e-03   7.59343e-05 DIIS
   @DF-RHF iter   5:  -462.78163166810771   -2.22132e-04   2.34503e-05 DIIS
   @DF-RHF iter   6:  -462.78166130076863   -2.96327e-05   7.11441e-06 DIIS
   @DF-RHF iter   7:  -462.78166502157694   -3.72081e-06   2.81854e-06 DIIS
   @DF-RHF iter   8:  -462.78166562993903   -6.08362e-07   1.05929e-06 DIIS
   @DF-RHF iter   9:  -462.78166576478372   -1.34845e-07   4.43906e-07 DIIS
   @DF-RHF iter  10:  -462.78166578565981   -2.08761e-08   2.11616e-07 DIIS
   @DF-RHF iter  11:  -462.78166579150792   -5.84811e-09   9.42578e-08 DIIS
   @DF-RHF iter  12:  -462.78166579293747   -1.42956e-09   3.98385e-08 DIIS
   @DF-RHF iter  13:  -462.78166579315598   -2.18506e-10   1.74604e-08 DIIS
   @DF-RHF iter  14:  -462.78166579319770   -4.17231e-11   5.05806e-09 DIIS
   @DF-RHF iter  15:  -462.78166579320106   -3.35376e-12   1.78801e-09 DIIS
   @DF-RHF iter  16:  -462.78166579320134   -2.84217e-13   5.72592e-10 DIIS
   @DF-RHF iter  17:  -462.78166579320117    1.70530e-13   2.10041e-10 DIIS
   @DF-RHF iter  18:  -462.78166579319958    1.59162e-12   7.63341e-11 DIIS
  Energy and wave function converged.


  ==> Post-Iterations <==

    Orbital Energies [Eh]
    ---------------------

    Doubly Occupied:                                                      

       1A    -11.491999     2A    -11.465993     3A    -11.437826  
       4A    -11.394483     5A    -11.390083     6A    -11.386337  
       7A    -11.376327     8A    -11.374686     9A    -11.370405  
      10A    -11.364040    11A    -11.363102    12A    -11.360468  
      13A     -1.396417    14A     -1.272132    15A     -1.225507  
      16A     -1.167242    17A     -1.135185    18A     -1.130655  
      19A     -1.100311    20A     -0.970559    21A     -0.965313  
      22A     -0.949833    23A     -0.913632    24A     -0.870819  
      25A     -0.846188    26A     -0.800884    27A     -0.783907  
      28A     -0.757551    29A     -0.752028    30A     -0.741785  
      31A     -0.720298    32A     -0.704546    33A     -0.676120  
      34A     -0.666900    35A     -0.648416    36A     -0.636452  
      37A     -0.629220    38A     -0.618196    39A     -0.613071  
      40A     -0.607428    41A     -0.580048    42A     -0.456524  
      43A     -0.452617  

    Virtual:                                                              

      44A     -0.127760    45A     -0.011624    46A      0.001266  
      47A      0.006806    48A      0.026897    49A      0.051703  
      50A      0.074053    51A      0.077140    52A      0.092653  
      53A      0.100524    54A      0.114958    55A      0.120839  
      56A      0.123507    57A      0.136855    58A      0.140881  
      59A      0.155289    60A      0.162041    61A      0.174659  
      62A      0.189969    63A      0.214406    64A      0.218973  
      65A      0.230262    66A      0.259655    67A      0.271306  
      68A      0.306962    69A      0.324463    70A      0.334098  
      71A      0.344143    72A      0.352657    73A      0.366660  
      74A      0.411075    75A      0.425640    76A      0.449313  
      77A      0.464763    78A      0.485354    79A      0.499741  
      80A      0.518900    81A      0.524575    82A      0.537749  
      83A      0.545016    84A      0.567568    85A      0.576354  
      86A      0.581339    87A      0.589122    88A      0.592406  
      89A      0.602093    90A      0.608662    91A      0.618281  
      92A      0.619570    93A      0.626693    94A      0.651476  
      95A      0.662165    96A      0.677830    97A      0.683762  
      98A      0.692349    99A      0.693032   100A      0.701545  
     101A      0.704442   102A      0.714704   103A      0.722816  
     104A      0.742062   105A      0.745990   106A      0.752821  
     107A      0.757371   108A      0.759816   109A      0.764343  
     110A      0.774925   111A      0.779498   112A      0.798637  
     113A      0.801600   114A      0.804838   115A      0.826916  
     116A      0.839545   117A      0.854806   118A      0.870469  
     119A      0.885984   120A      0.967015   121A      0.995277  
     122A      1.002361   123A      1.018008   124A      1.024700  
     125A      1.027413   126A      1.038537   127A      1.070254  
     128A      1.088189   129A      1.117483   130A      1.130589  
     131A      1.136072   132A      1.144896   133A      1.148184  
     134A      1.172125   135A      1.184479   136A      1.198168  
     137A      1.230282   138A      1.258334   139A      1.271631  
     140A      1.284479   141A      1.300029   142A      1.315220  
     143A      1.332654   144A      1.372128   145A      1.391431  
     146A      1.414470   147A      1.425246   148A      1.474759  
     149A      1.485838   150A      1.504110   151A      1.514445  
     152A      1.550946   153A      1.562997   154A      1.583795  
     155A      1.605004   156A      1.623762   157A      1.637886  
     158A      1.641807   159A      1.649969   160A      1.659361  
     161A      1.679105   162A      1.696284   163A      1.703191  
     164A      1.730801   165A      1.735400   166A      1.748430  
     167A      1.758844   168A      1.768199   169A      1.777409  
     170A      1.785484   171A      1.791000   172A      1.804142  
     173A      1.806390   174A      1.816317   175A      1.821925  
     176A      1.829883   177A      1.832318   178A      1.841049  
     179A      1.844279   180A      1.868064   181A      1.872926  
     182A      1.892721   183A      1.900265   184A      1.914086  
     185A      1.914818   186A      1.934317   187A      1.943574  
     188A      1.952016   189A      1.970203   190A      1.984734  
     191A      2.021293   192A      2.027802   193A      2.029726  
     194A      2.035310   195A      2.053039   196A      2.060871  
     197A      2.070197   198A      2.083799   199A      2.097570  
     200A      2.119885   201A      2.132632   202A      2.137063  
     203A      2.145686   204A      2.177635   205A      2.179103  
     206A      2.200103   207A      2.223251   208A      2.243894  
     209A      2.261062   210A      2.271881   211A      2.288609  
     212A      2.315133   213A      2.330016   214A      2.341285  
     215A      2.368223   216A      2.390836   217A      2.439841  
     218A      2.443921   219A      2.499051   220A      2.521763  
     221A      2.555390   222A      2.592778   223A      2.603986  
     224A      2.618522   225A      2.626879   226A      2.634246  
     227A      2.637180   228A      2.645151   229A      2.652771  
     230A      2.710587   231A      2.750517   232A      2.765045  
     233A      2.824563   234A      2.834160   235A      2.850131  
     236A      2.855308   237A      2.882943   238A      2.954506  
     239A      2.981159   240A      3.041198   241A      3.065092  
     242A      3.131071   243A      3.780985  

    Final Occupation by Irrep:
              A 
    DOCC [    43 ]

  @DF-RHF Final Energy:  -462.78166579319958

   => Energetics <=

    Nuclear Repulsion Energy =            680.2744952817794228
    One-Electron Energy =               -1960.9812519567453819
    Two-Electron Energy =                 817.9250908817664367
    Total Energy =                       -462.7816657931996360

Computation Completed


Properties will be evaluated at   0.000000,   0.000000,   0.000000 [a0]

Properties computed using the SCF density matrix

  Nuclear Dipole Moment: [e a0]
     X:     8.0360      Y:     2.7582      Z:    -2.5135

  Electronic Dipole Moment: [e a0]
     X:    -6.3826      Y:    -1.7230      Z:     0.2761

  Dipole Moment: [e a0]
     X:     1.6534      Y:     1.0352      Z:    -2.2374     Total:     2.9684

  Dipole Moment: [D]
     X:     4.2026      Y:     2.6313      Z:    -5.6869     Total:     7.5449


*** tstop() called on skystd39.palmetto.clemson.edu at Thu Oct 14 16:11:16 2021
Module time:
	user time   =      11.44 seconds =       0.19 minutes
	system time =       0.56 seconds =       0.01 minutes
	total time  =         12 seconds =       0.20 minutes
Total time:
	user time   =      11.44 seconds =       0.19 minutes
	system time =       0.56 seconds =       0.01 minutes
	total time  =         12 seconds =       0.20 minutes

*** tstart() called on skystd39.palmetto.clemson.edu
*** at Thu Oct 14 16:11:16 2021


  //>>>>>>>>>>>>>>>>>>>>>>>>>>>>>>>>>>>//
  //               DFMP2               //
  //<<<<<<<<<<<<<<<<<<<<<<<<<<<<<<<<<<<//

   => Loading Basis Set <=

    Name: (CC-PVDZ AUX)
    Role: RIFIT
    Keyword: DF_BASIS_MP2
    atoms 1-6, 14-19  entry C          line   159 file /home/maxbuskirk/.conda/envs/psifour/share/psi4/basis/cc-pvdz-ri.gbs 
    atoms 7-13, 20-27 entry H          line    19 file /home/maxbuskirk/.conda/envs/psifour/share/psi4/basis/cc-pvdz-ri.gbs 

	 --------------------------------------------------------
	                          DF-MP2                         
	      2nd-Order Density-Fitted Moller-Plesset Theory     
	              RMP2 Wavefunction,   1 Threads             
	                                                         
	        Rob Parrish, Justin Turney, Andy Simmonett,      
	           Ed Hohenstein, and C. David Sherrill          
	 --------------------------------------------------------

   => Auxiliary Basis Set <=

  Basis Set: (CC-PVDZ AUX)
    Blend: CC-PVDZ-RI
    Number of shells: 306
    Number of basis functions: 882
    Number of Cartesian functions: 1017
    Spherical Harmonics?: true
    Max angular momentum: 3

	 --------------------------------------------------------
	                 NBF =   243, NAUX =   882
	 --------------------------------------------------------
	   CLASS    FOCC     OCC    AOCC    AVIR     VIR    FVIR
	   PAIRS       0      43      43     200     200       0
	 --------------------------------------------------------

  DFHelper Memory: AOs need 0.498 GiB; user supplied 22.352 GiB. Using in-core AOs.


         ------------------------------------------------------------
                                     CPHF                           
                                  Rob Parrish                       
         ------------------------------------------------------------

  ==> Geometry <==

    Molecular point group: c1
    Full point group: C1

    Geometry (in Angstrom), charge = 1, multiplicity = 1:

       Center              X                  Y                   Z               Mass       
    ------------   -----------------  -----------------  -----------------  -----------------
         C            1.078410905848     0.539743127276    -1.878244263798    12.000000000000
         C            0.723280905848     0.428522127276    -0.410832263798    12.000000000000
         C            1.551380905848     1.310427127276     0.542702736202    12.000000000000
         C            2.814835905848     0.480332127276     0.844091736202    12.000000000000
         C            3.094233905848    -0.294470872724    -0.460195263798    12.000000000000
         C            1.706836905848    -0.559823872724    -1.044342263798    12.000000000000
         H            1.382717905848    -1.586538872724    -1.238828263798     1.007825032230
         H            3.645069905848    -1.230661872724    -0.276733263798     1.007825032230
         H            3.702963905848     0.313186127276    -1.153612263798     1.007825032230
         H            2.579768905848    -0.244428872724     1.643793736202     1.007825032230
         H            3.668824905848     1.089754127276     1.185280736202     1.007825032230
         H            0.979911905848     1.551055127276     1.453035736202     1.007825032230
         H            1.815627905848     2.266293127276     0.055226736202     1.007825032230
         C           -0.650295094152     0.015301127276     0.003615736202    12.000000000000
         C           -0.819511094152    -0.893044872724     1.069712736202    12.000000000000
         C           -2.101778094152    -1.263811872724     1.501037736202    12.000000000000
         C           -3.238392094152    -0.730776872724     0.869080736202    12.000000000000
         C           -3.082372094152     0.174586127276    -0.192613263798    12.000000000000
         C           -1.796555094152     0.545914127276    -0.618839263798    12.000000000000
         H           -1.675151094152     1.257820127276    -1.441643263798     1.007825032230
         H           -3.963138094152     0.594245127276    -0.688493263798     1.007825032230
         H           -4.239295094152    -1.022140872724     1.201058736202     1.007825032230
         H           -2.215900094152    -1.973972872724     2.325897736202     1.007825032230
         H            0.066580905848    -1.318455872724     1.553637736202     1.007825032230
         H            0.317540905848     0.240354127276    -2.604597263798     1.007825032230
         H            1.719726905848     1.371798127276    -2.188054263798     1.007825032230
         H            0.786763595848     1.633900027276    -2.507087483798     1.007825032230

  Nuclear repulsion =  680.274495281779423
  Reference energy  = -462.781665793199579

  ==> Basis Set <==

  Basis Set: CC-PVDZ
    Blend: CC-PVDZ
    Number of shells: 117
    Number of basis functions: 243
    Number of Cartesian functions: 255
    Spherical Harmonics?: true
    Max angular momentum: 2

  ==> CGRSolver (by Rob Parrish) <==

   Number of roots    =         1
   Preconditioning    =    JACOBI
   Convergence cutoff =     1E-06
   Maximum iterations =       100

  ==> CPHFRHamiltonian (by Rob Parrish) <== 

  ==> MemDFJK: Density-Fitted J/K Matrices <==

    J tasked:                   Yes
    K tasked:                   Yes
    wK tasked:                   No
    OpenMP threads:               1
    Memory [MiB]:             22888
    Algorithm:                 Core
    Schwarz Cutoff:           1E-12
    Mask sparsity (%):       8.2745
    Fitting Condition:        1E-10

   => Auxiliary Basis Set <=

  Basis Set: (CC-PVDZ AUX)
    Blend: CC-PVDZ-JKFIT
    Number of shells: 423
    Number of basis functions: 1185
    Number of Cartesian functions: 1347
    Spherical Harmonics?: true
    Max angular momentum: 3

  ==> CPHF Iterations <==

  => Iterations <=

             Iter  Converged  Remaining    Residual
  CGR           1          0          1   6.766E-02
  CGR           2          0          1   1.586E-02
  CGR           3          0          1   7.087E-03
  CGR           4          0          1   2.554E-03
  CGR           5          0          1   9.438E-04
  CGR           6          0          1   4.151E-04
  CGR           7          0          1   1.821E-04
  CGR           8          0          1   6.947E-05
  CGR           9          0          1   3.383E-05
  CGR          10          0          1   1.026E-05
  CGR          11          0          1   4.058E-06
  CGR          12          0          1   1.226E-06
  CGR          13          1          0   4.053E-07

    CGRSolver converged.

  ==> DFCorrGrad: Density-Fitted Correlated Gradients <==

    OpenMP threads:              1
    Integrals threads:           1
    Memory [GiB]:           22.352
    Schwarz Cutoff:          0E+00
    Fitting Condition:       1E-10

   => Auxiliary Basis Set <=

  Basis Set: (CC-PVDZ AUX)
    Blend: CC-PVDZ-JKFIT
    Number of shells: 423
    Number of basis functions: 1185
    Number of Cartesian functions: 1347
    Spherical Harmonics?: true
    Max angular momentum: 3

	-----------------------------------------------------------
	 ==================> DF-MP2 Energies <==================== 
	-----------------------------------------------------------
	 Reference Energy          =    -462.7816657931995792 [Eh]
	 Singles Energy            =      -0.0000000000000000 [Eh]
	 Same-Spin Energy          =      -0.4316763693049031 [Eh]
	 Opposite-Spin Energy      =      -1.2279956937680763 [Eh]
	 Correlation Energy        =      -1.6596720630729793 [Eh]
	 Total Energy              =    -464.4413378562725825 [Eh]
	-----------------------------------------------------------
	 ================> DF-SCS-MP2 Energies <================== 
	-----------------------------------------------------------
	 SCS Same-Spin Scale       =       0.3333333333333333 [-]
	 SCS Opposite-Spin Scale   =       1.2000000000000000 [-]
	 SCS Same-Spin Energy      =      -0.1438921231016344 [Eh]
	 SCS Opposite-Spin Energy  =      -1.4735948325216914 [Eh]
	 SCS Correlation Energy    =      -1.6174869556233258 [Eh]
	 SCS Total Energy          =    -464.3991527488229281 [Eh]
	-----------------------------------------------------------


  -Total Gradient:
     Atom            X                  Y                   Z
    ------   -----------------  -----------------  -----------------
       1        0.074908629820    -0.028778250947     0.018034197705
       2       -0.001767458181     0.007567515780    -0.007069787017
       3       -0.005904373628    -0.002402616981     0.001603826789
       4        0.001644205375     0.001045122103    -0.001230630764
       5       -0.007234399365    -0.003245607052     0.000131542653
       6       -0.017288261490     0.005009367520    -0.033214287209
       7        0.001581125303    -0.002168677935     0.012697571167
       8        0.002077792629    -0.000177674494     0.002419506872
       9       -0.000341554575     0.002511892326    -0.000137736775
      10       -0.000371115286    -0.000864423908     0.000311510677
      11        0.001176108716     0.001309920554     0.001359099762
      12        0.001219713757     0.000356301192     0.003204813086
      13       -0.000128516203    -0.001721954642    -0.000904478959
      14        0.008469350411     0.001918988346     0.005237518250
      15       -0.005224425573     0.000999770319    -0.000148242588
      16       -0.000624569403    -0.000213665749     0.000273556111
      17       -0.000986274846    -0.000546545868     0.000500074532
      18        0.000916372019    -0.001147779200     0.000951623631
      19       -0.002430286764    -0.000023549775     0.000706549920
      20        0.002432009956    -0.001389299394     0.000914126439
      21       -0.000795904319     0.000120235645    -0.000134716834
      22       -0.000569209309    -0.000299113329     0.000298371958
      23       -0.000664408943    -0.000541507689     0.000558781153
      24        0.000398432255     0.000550423497    -0.001196723001
      25        0.002855006108     0.017408901217     0.008496993390
      26       -0.051259581552    -0.017750431392     0.011206820996
      27       -0.002088406907     0.022472659855    -0.024869881946


*** tstop() called on skystd39.palmetto.clemson.edu at Thu Oct 14 16:12:06 2021
Module time:
	user time   =      47.67 seconds =       0.79 minutes
	system time =       2.45 seconds =       0.04 minutes
	total time  =         50 seconds =       0.83 minutes
Total time:
	user time   =      59.11 seconds =       0.99 minutes
	system time =       3.01 seconds =       0.05 minutes
	total time  =         62 seconds =       1.03 minutes

			-----------------------------------------
			 OPTKING 2.0: for geometry optimizations 
			  - R.A. King,  Bethel University        
			-----------------------------------------

	Internal coordinates to be generated automatically.
	Detected frag 1 with atoms:  1 2 3 4 5 6 7 8 9 10 11 12 13 14 15 16 17 18 19 20
	 21 22 23 24 25 26 27
	---Fragment 1 Bond Connectivity---
	 1 : 2 6 25 26 27
	 2 : 1 3 6 14
	 3 : 2 4 12 13
	 4 : 3 5 10 11
	 5 : 4 6 8 9
	 6 : 1 2 5 7
	 7 : 6
	 8 : 5
	 9 : 5
	 10 : 4
	 11 : 4
	 12 : 3
	 13 : 3
	 14 : 2 15 19
	 15 : 14 16 24
	 16 : 15 17 23
	 17 : 16 18 22
	 18 : 17 19 21
	 19 : 14 18 20
	 20 : 19
	 21 : 18
	 22 : 17
	 23 : 16
	 24 : 15
	 25 : 1
	 26 : 1
	 27 : 1

	---Fragment 1 Geometry and Gradient---
	 C           2.0379012628        1.0199666886       -3.5493672553
	 C           1.3668028238        0.8097894593       -0.7763604621
	 C           2.9316850283        2.4763483779        1.0255595390
	 C           5.3192689502        0.9076961698        1.5951022062
	 C           5.8472546502       -0.5564693014       -0.8696430128
	 C           3.2254542929       -1.0579137979       -1.9735208598
	 H           2.6129581508       -2.9981239568       -2.3410461351
	 H           6.8881838302       -2.3256138925       -0.5229500784
	 H           6.9975876345        0.5918360068       -2.1800112335
	 H           4.8750566990       -0.4619036266        3.1063199682
	 H           6.9330742743        2.0593368446        2.2398559732
	 H           1.8517651291        2.9310693960        2.7458395919
	 H           3.4310394878        4.2826733306        0.1043634062
	 C          -1.2288796287        0.0289149400        0.0068327512
	 C          -1.5486515247       -1.6876102272        2.0214641043
	 C          -3.9717849744       -2.3882583136        2.8365502254
	 C          -6.1196741448       -1.3809681483        1.6423245723
	 C          -5.8248390747        0.3299199659       -0.3639863167
	 C          -3.3949970972        1.0316281886       -1.1694367243
	 H          -3.1655767867        2.3769355556       -2.7243109392
	 H          -7.4892455953        1.1229605419       -1.3010637078
	 H          -8.0111066929       -1.9315663111        2.2696720720
	 H          -4.1874442993       -3.7302681085        4.3953097172
	 H           0.1258196772       -2.4915205079        2.9359498196
	 H           0.6000653457        0.4542034737       -4.9219754957
	 H           3.2498128626        2.5923227600       -4.1348233062
	 H           1.4867677216        3.0876235679       -4.7377087169
	             0.0749086298       -0.0287782509        0.0180341977
	            -0.0017674582        0.0075675158       -0.0070697870
	            -0.0059043736       -0.0024026170        0.0016038268
	             0.0016442054        0.0010451221       -0.0012306308
	            -0.0072343994       -0.0032456071        0.0001315427
	            -0.0172882615        0.0050093675       -0.0332142872
	             0.0015811253       -0.0021686779        0.0126975712
	             0.0020777926       -0.0001776745        0.0024195069
	            -0.0003415546        0.0025118923       -0.0001377368
	            -0.0003711153       -0.0008644239        0.0003115107
	             0.0011761087        0.0013099206        0.0013590998
	             0.0012197138        0.0003563012        0.0032048131
	            -0.0001285162       -0.0017219546       -0.0009044790
	             0.0084693504        0.0019189883        0.0052375183
	            -0.0052244256        0.0009997703       -0.0001482426
	            -0.0006245694       -0.0002136657        0.0002735561
	            -0.0009862748       -0.0005465459        0.0005000745
	             0.0009163720       -0.0011477792        0.0009516236
	            -0.0024302868       -0.0000235498        0.0007065499
	             0.0024320100       -0.0013892994        0.0009141264
	            -0.0007959043        0.0001202356       -0.0001347168
	            -0.0005692093       -0.0002991133        0.0002983720
	            -0.0006644089       -0.0005415077        0.0005587812
	             0.0003984323        0.0005504235       -0.0011967230
	             0.0028550061        0.0174089012        0.0084969934
	            -0.0512595816       -0.0177504314        0.0112068210
	            -0.0020884069        0.0224726599       -0.0248698819

	Previous optimization step data not found.  Starting new optimization.

	---Fragment 1 Intrafragment Coordinates---
	 - Coordinate -           - BOHR/RAD -       - ANG/DEG -
	 R(1,2)           =         2.860789	       1.513864
	 R(1,6)           =         2.865512	       1.516364
	 R(1,25)          =         2.066764	       1.093684
	 R(1,26)          =         2.069732	       1.095255
	 R(1,27)          =         2.447674	       1.295253
	 R(2,3)           =         2.910875	       1.540368
	 R(2,6)           =         2.894148	       1.531517
	 R(2,14)          =         2.821476	       1.493061
	 R(3,4)           =         2.913006	       1.541497
	 R(3,12)          =         2.081433	       1.101447
	 R(3,13)          =         2.088245	       1.105052
	 R(4,5)           =         2.915050	       1.542578
	 R(4,10)          =         2.087321	       1.104562
	 R(4,11)          =         2.084790	       1.103224
	 R(5,6)           =         2.888569	       1.528565
	 R(5,8)           =         2.081731	       1.101604
	 R(5,9)           =         2.087806	       1.104820
	 R(6,7)           =         2.067521	       1.094085
	 R(14,15)         =         2.665981	       1.410776
	 R(14,19)         =         2.661035	       1.408159
	 R(15,16)         =         2.650820	       1.402754
	 R(15,24)         =         2.070365	       1.095590
	 R(16,17)         =         2.655981	       1.405485
	 R(16,23)         =         2.068147	       1.094416
	 R(17,18)         =         2.653177	       1.404001
	 R(17,22)         =         2.067424	       1.094033
	 R(18,19)         =         2.654294	       1.404592
	 R(18,21)         =         2.068158	       1.094422
	 R(19,20)         =         2.068845	       1.094786
	 B(1,2,3)         =         2.017351	     115.585685
	 B(1,2,6)         =         1.042344	      59.721936
	 B(1,2,14)        =         2.100422	     120.345328
	 B(1,6,2)         =         1.039528	      59.560564
	 B(1,6,5)         =         2.049282	     117.415187
	 B(1,6,7)         =         2.048738	     117.384025
	 B(2,1,6)         =         1.059720	      60.717500
	 B(2,1,25)        =         2.049292	     117.415782
	 B(2,1,26)        =         2.057096	     117.862942
	 B(2,1,27)        =         2.071271	     118.675090
	 B(2,3,4)         =         1.826944	     104.676198
	 B(2,3,12)        =         1.936680	     110.963570
	 B(2,3,13)        =         1.929130	     110.530986
	 B(2,6,5)         =         1.888930	     108.227717
	 B(2,6,7)         =         2.081600	     119.266883
	 B(2,14,15)       =         2.092441	     119.888038
	 B(2,14,19)       =         2.119852	     121.458574
	 B(3,2,6)         =         1.854886	     106.277162
	 B(3,2,14)        =         2.072817	     118.763664
	 B(3,4,5)         =         1.827213	     104.691617
	 B(3,4,10)        =         1.897014	     108.690913
	 B(3,4,11)        =         1.979545	     113.419580
	 B(4,3,12)        =         1.962002	     112.414409
	 B(4,3,13)        =         1.934839	     110.858094
	 B(4,5,6)         =         1.819262	     104.236043
	 B(4,5,8)         =         1.956931	     112.123910
	 B(4,5,9)         =         1.932871	     110.745342
	 B(5,4,10)        =         1.897723	     108.731493
	 B(5,4,11)        =         1.980944	     113.499740
	 B(5,6,7)         =         2.094079	     119.981893
	 B(6,1,25)        =         2.043221	     117.067911
	 B(6,1,26)        =         2.053042	     117.630648
	 B(6,1,27)        =         2.908084	     166.620915
	 B(6,2,14)        =         2.125903	     121.805252
	 B(6,5,8)         =         1.949769	     111.713517
	 B(6,5,9)         =         1.934481	     110.837597
	 B(8,5,9)         =         1.871758	     107.243849
	 B(10,4,11)       =         1.878938	     107.655190
	 B(12,3,13)       =         1.875161	     107.438837
	 B(14,15,16)      =         2.108523	     120.809467
	 B(14,15,24)      =         2.079202	     119.129487
	 B(14,19,18)      =         2.107639	     120.758819
	 B(14,19,20)      =         2.079425	     119.142292
	 B(15,14,19)      =         2.070330	     118.621159
	 B(15,16,17)      =         2.095249	     120.048921
	 B(15,16,23)      =         2.092759	     119.906259
	 B(16,15,24)      =         2.095393	     120.057181
	 B(16,17,18)      =         2.088291	     119.650243
	 B(16,17,22)      =         2.097186	     120.159915
	 B(17,16,23)      =         2.095155	     120.043517
	 B(17,18,19)      =         2.096327	     120.110679
	 B(17,18,21)      =         2.094932	     120.030779
	 B(18,17,22)      =         2.097705	     120.189618
	 B(18,19,20)      =         2.096116	     120.098614
	 B(19,18,21)      =         2.091924	     119.858405
	 B(25,1,26)       =         2.012474	     115.306264
	 B(25,1,27)       =         1.320347	      75.650287
	 B(26,1,27)       =         0.866851	      49.666882
	 D(1,2,3,4)       =        -1.487484	     -85.226572
	 D(1,2,3,12)      =         2.675187	     153.276932
	 D(1,2,3,13)      =         0.596675	      34.186976
	 D(1,2,6,5)       =         1.948453	     111.638142
	 D(1,2,6,7)       =        -1.856921	    -106.393716
	 D(1,2,14,15)     =         2.408854	     138.017151
	 D(1,2,14,19)     =        -0.769280	     -44.076485
	 D(1,6,2,3)       =        -1.928884	    -110.516925
	 D(1,6,2,14)      =         1.903190	     109.044759
	 D(1,6,5,4)       =         1.468895	      84.161501
	 D(1,6,5,8)       =        -2.697521	    -154.556588
	 D(1,6,5,9)       =        -0.611214	     -35.019998
	 D(2,1,6,5)       =        -1.674893	     -95.964306
	 D(2,1,6,7)       =         1.911561	     109.524357
	 D(2,3,4,5)       =         0.589407	      33.770540
	 D(2,3,4,10)      =        -1.436065	     -82.280465
	 D(2,3,4,11)      =         2.757968	     158.019943
	 D(2,6,1,25)      =        -1.882068	    -107.834530
	 D(2,6,1,26)      =         1.887309	     108.134828
	 D(2,6,1,27)      =         1.590619	      91.135753
	 D(2,6,5,4)       =         0.342659	      19.632931
	 D(2,6,5,8)       =         2.459428	     140.914841
	 D(2,6,5,9)       =        -1.737450	     -99.548568
	 D(2,14,15,16)    =         3.108309	     178.092997
	 D(2,14,15,24)    =        -0.045760	      -2.621861
	 D(2,14,19,18)    =        -3.110817	    -178.236678
	 D(2,14,19,20)    =         0.027453	       1.572949
	 D(3,2,1,6)       =         1.651177	      94.605460
	 D(3,2,1,25)      =        -2.759824	    -158.126276
	 D(3,2,1,26)      =        -0.229547	     -13.152074
	 D(3,2,1,27)      =        -1.223573	     -70.105574
	 D(3,2,6,5)       =         0.019569	       1.121217
	 D(3,2,6,7)       =         2.497380	     143.089359
	 D(3,2,14,15)     =        -1.201325	     -68.830845
	 D(3,2,14,19)     =         1.903727	     109.075519
	 D(3,4,5,6)       =        -0.573602	     -32.864999
	 D(3,4,5,8)       =        -2.685602	    -153.873654
	 D(3,4,5,9)       =         1.507600	      86.379143
	 D(4,3,2,6)       =        -0.375127	     -21.493186
	 D(4,3,2,14)      =         2.100956	     120.375901
	 D(4,5,6,7)       =        -2.129570	    -122.015351
	 D(5,4,3,12)      =         2.693170	     154.307289
	 D(5,4,3,13)      =        -1.490910	     -85.422842
	 D(5,6,1,25)      =         2.726225	     156.201164
	 D(5,6,1,26)      =         0.212416	      12.170522
	 D(5,6,1,27)      =        -0.084274	      -4.828553
	 D(5,6,2,14)      =        -2.431542	    -139.317099
	 D(6,1,2,14)      =        -1.944837	    -111.430967
	 D(6,2,1,25)      =         1.872184	     107.268264
	 D(6,2,1,26)      =        -1.880724	    -107.757534
	 D(6,2,1,27)      =        -2.874750	    -164.711034
	 D(6,2,3,12)      =        -2.495641	    -142.989682
	 D(6,2,3,13)      =         1.709033	      97.920361
	 D(6,2,14,15)     =         1.168456	      66.947624
	 D(6,2,14,19)     =        -2.009677	    -115.146011
	 D(6,5,4,10)      =         1.451379	      83.157872
	 D(6,5,4,11)      =        -2.741271	    -157.063259
	 D(7,6,1,25)      =         0.029493	       1.689827
	 D(7,6,1,26)      =        -2.484316	    -142.340815
	 D(7,6,1,27)      =        -2.781006	    -159.339890
	 D(7,6,2,14)      =         0.046269	       2.651043
	 D(7,6,5,8)       =        -0.012801	      -0.733441
	 D(7,6,5,9)       =         2.073506	     118.803150
	 D(8,5,4,10)      =        -0.660621	     -37.850783
	 D(8,5,4,11)      =         1.429915	      81.928087
	 D(9,5,4,10)      =        -2.750604	    -157.597986
	 D(9,5,4,11)      =        -0.660068	     -37.819116
	 D(10,4,3,12)     =         0.667698	      38.256283
	 D(10,4,3,13)     =         2.766803	     158.526152
	 D(11,4,3,12)     =        -1.421454	     -81.443309
	 D(11,4,3,13)     =         0.677651	      38.826560
	 D(12,3,2,14)     =        -0.019558	      -1.120595
	 D(13,3,2,14)     =        -2.098070	    -120.210552
	 D(14,2,1,25)     =        -0.072653	      -4.162703
	 D(14,2,1,26)     =         2.457624	     140.811498
	 D(14,2,1,27)     =         1.463598	      83.857999
	 D(14,15,16,17)   =         0.001304	       0.074700
	 D(14,15,16,23)   =         3.135653	     179.659684
	 D(14,19,18,17)   =         0.004887	       0.280010
	 D(14,19,18,21)   =        -3.139052	    -179.854428
	 D(15,14,19,18)   =        -0.005315	      -0.304531
	 D(15,14,19,20)   =         3.132955	     179.505096
	 D(15,16,17,18)   =        -0.001796	      -0.102888
	 D(15,16,17,22)   =         3.136800	     179.725411
	 D(16,15,14,19)   =         0.002225	       0.127485
	 D(16,17,18,19)   =        -0.001268	      -0.072650
	 D(16,17,18,21)   =        -3.140510	    -179.937978
	 D(17,16,15,24)   =        -3.127697	    -179.203838
	 D(17,18,19,20)   =        -3.133351	    -179.527802
	 D(18,17,16,23)   =        -3.136135	    -179.687298
	 D(19,14,15,24)   =         3.131341	     179.412627
	 D(19,18,17,22)   =        -3.139863	    -179.900897
	 D(20,19,18,21)   =         0.005895	       0.337760
	 D(21,18,17,22)   =         0.004080	       0.233774
	 D(22,17,16,23)   =         0.002461	       0.141001
	 D(23,16,15,24)   =         0.006652	       0.381147

	Current energy   :      -464.4413378563

	Generating empirical Hessian (Schlegel '84) for each fragment.
	Taking PRFO optimization step.
	Maximizing along 1 lowest eigenvalue of Hessian.

 RFO min eigenvalues
 -0.026822 -0.000000 -0.000000 -0.000000 -0.000000 -0.000000 -0.000000 -0.000000
 -0.000000 -0.000000 -0.000000 -0.000000 -0.000000 -0.000000 -0.000000 -0.000000
 -0.000000 -0.000000 -0.000000 -0.000000 -0.000000 -0.000000 -0.000000 -0.000000
 -0.000000 -0.000000 -0.000000 -0.000000 -0.000000 -0.000000 -0.000000 -0.000000
 -0.000000 -0.000000 -0.000000 -0.000000 -0.000000 -0.000000 -0.000000 -0.000000
 -0.000000 -0.000000 -0.000000 -0.000000 -0.000000 -0.000000 -0.000000 -0.000000
 -0.000000 -0.000000 -0.000000 -0.000000 -0.000000  0.000000  0.000000  0.000000
  0.000000  0.000000  0.000000  0.000000  0.000000  0.000000  0.000000  0.000000
  0.000000  0.000000  0.000000  0.000000  0.000000  0.000000  0.000000  0.000000
  0.000000  0.000000  0.000000  0.000000  0.000000  0.000000  0.000000  0.000000
  0.000000  0.000000  0.000000  0.000000  0.000000  0.000000  0.000000  0.000000
  0.000000  0.000000  0.000000  0.000000  0.000000  0.000000  0.000000  0.000000
  0.000000  0.000000  0.000000  0.000000  0.000000  0.000000  0.000000  0.000000
  0.000000  0.000000  0.000000  0.000000  0.003414  0.005494  0.005870  0.007563
  0.012386  0.012477  0.015096  0.016990  0.017273  0.017344  0.017495  0.017535
  0.017591  0.017607  0.017664  0.020715  0.027713  0.028998  0.035635  0.037905
  0.043540  0.051022  0.053980  0.058881  0.061221  0.068976  0.069872  0.070218
  0.074606  0.080376  0.084104  0.091978  0.097213  0.100157  0.105779  0.110773
  0.159989  0.159997  0.159999  0.160000  0.160089  0.168121  0.192845  0.202292
  0.205401  0.220000  0.220017  0.234916  0.249880  0.264032  0.266849  0.276432
  0.290672  0.301839  0.331168  0.331298  0.331550  0.331827  0.333289  0.335057
  0.335233  0.341746  0.342654  0.343066  0.343072  0.343448  0.343506  0.343752
  0.349246  0.406933  0.407809  0.442333  0.445137  0.448684  0.450592

 RFO max eigenvalues
 -0.000000  0.000000
	Change in coordinate exceeds step limit of    0.50000.
	Scaling displacements by    0.92322
	|RFO target step|  :        0.5000000000
	RFO gradient       :       -0.0495258520
	RFO hessian        :        0.0650938625
	Projected Delta(E) :       -0.0133009546

	Back-transformation to cartesian coordinates...
	Successfully converged to displaced geometry.
	First geometry is closer to target in internal coordinates, so am using that one.
	First geometry has RMS(Delta(q)) = 5.37e-03

	--- Internal Coordinate Step in ANG or DEG, aJ/ANG or AJ/DEG ---
	 ---------------------------------------------------------------------------
	   Coordinate                Previous        Force       Change         New 
	   ----------                --------       ------       ------       ------
	    1 R(1,2)          =      1.513864    -0.004750    -0.001497     1.512367
	    2 R(1,6)          =      1.516364     0.086731     0.021139     1.537503
	    3 R(1,25)         =      1.093684     0.102118     0.019056     1.112740
	    4 R(1,26)         =      1.095255     0.384496     0.070177     1.165432
	    5 R(1,27)         =      1.295253    -0.259752    -0.071312     1.223941
	    6 R(2,3)          =      1.540368     0.018464     0.003833     1.544201
	    7 R(2,6)          =      1.531517     0.029195     0.000998     1.532515
	    8 R(2,14)         =      1.493061    -0.012529    -0.001965     1.491095
	    9 R(3,4)          =      1.541497     0.010398     0.001668     1.543164
	   10 R(3,12)         =      1.101447    -0.017250    -0.002798     1.098649
	   11 R(3,13)         =      1.105052     0.009237     0.001542     1.106593
	   12 R(4,5)          =      1.542578    -0.006582    -0.000710     1.541868
	   13 R(4,10)         =      1.104562    -0.007182    -0.001160     1.103403
	   14 R(4,11)         =      1.103224    -0.016925    -0.002756     1.100468
	   15 R(5,6)          =      1.528565     0.010014     0.001944     1.530509
	   16 R(5,8)          =      1.101604    -0.013123    -0.001885     1.099719
	   17 R(5,9)          =      1.104820    -0.010544    -0.001677     1.103142
	   18 R(6,7)          =      1.094085     0.005688     0.002393     1.096478
	   19 R(14,15)        =      1.410776    -0.009167    -0.001035     1.409741
	   20 R(14,19)        =      1.408159     0.004645     0.000704     1.408863
	   21 R(15,16)        =      1.402754    -0.016231    -0.001995     1.400758
	   22 R(15,24)        =      1.095590     0.003461     0.000575     1.096165
	   23 R(16,17)        =      1.405485     0.007798     0.000964     1.406449
	   24 R(16,23)        =      1.094416    -0.006935    -0.001077     1.093339
	   25 R(17,18)        =      1.404001    -0.000331    -0.000008     1.403992
	   26 R(17,22)        =      1.094033    -0.005693    -0.000907     1.093126
	   27 R(18,19)        =      1.404592    -0.016204    -0.002001     1.402590
	   28 R(18,21)        =      1.094422    -0.006160    -0.000956     1.093466
	   29 R(19,20)        =      1.094786     0.010881     0.001896     1.096681
	   30 B(1,2,3)        =    115.585685    -0.000014    -0.040920   115.544765
	   31 B(1,2,6)        =     59.721936     0.000275     0.929385    60.651321
	   32 B(1,2,14)       =    120.345328    -0.000422    -1.915307   118.430020
	   33 B(1,6,2)        =     59.560564    -0.000229    -0.534327    59.026237
	   34 B(1,6,5)        =    117.415187     0.000209     0.710179   118.125366
	   35 B(1,6,7)        =    117.384025    -0.000323    -3.092850   114.291175
	   36 B(2,1,6)        =     60.717500    -0.000046    -0.395057    60.322443
	   37 B(2,1,25)       =    117.415782     0.000096     2.292135   119.707917
	   38 B(2,1,26)       =    117.862942     0.000073     2.531957   120.394898
	   39 B(2,1,27)       =    118.675090    -0.000004    -0.559544   118.115546
	   40 B(2,3,4)        =    104.676198     0.000082     0.169832   104.846030
	   41 B(2,3,12)       =    110.963570    -0.000197    -1.133432   109.830139
	   42 B(2,3,13)       =    110.530986     0.000082     0.605172   111.136158
	   43 B(2,6,5)        =    108.227717     0.000226     0.837949   109.065667
	   44 B(2,6,7)        =    119.266883    -0.000038     0.887966   120.154849
	   45 B(2,14,15)      =    119.888038    -0.000366    -0.936377   118.951661
	   46 B(2,14,19)      =    121.458574     0.000031     0.058094   121.516668
	   47 B(3,2,6)        =    106.277162    -0.000287    -0.924145   105.353017
	   48 B(3,2,14)       =    118.763664     0.000405     1.456312   120.219976
	   49 B(3,4,5)        =    104.691617     0.000079    -0.039701   104.651915
	   50 B(3,4,10)       =    108.690913    -0.000015     0.195940   108.886853
	   51 B(3,4,11)       =    113.419580    -0.000009    -0.034620   113.384960
	   52 B(4,3,12)       =    112.414409     0.000059     0.533632   112.948041
	   53 B(4,3,13)       =    110.858094    -0.000001     0.148289   111.006383
	   54 B(4,5,6)        =    104.236043    -0.000166    -0.752243   103.483800
	   55 B(4,5,8)        =    112.123910     0.000219     1.031532   113.155442
	   56 B(4,5,9)        =    110.745342     0.000045     0.542240   111.287582
	   57 B(5,4,10)       =    108.731493     0.000024     0.341062   109.072555
	   58 B(5,4,11)       =    113.499740    -0.000089    -0.449728   113.050013
	   59 B(5,6,7)        =    119.981893     0.000070     0.976374   120.958267
	   60 B(6,1,25)       =    117.067911    -0.000183    -2.061762   115.006149
	   61 B(6,1,26)       =    117.630648    -0.000737    -5.933112   111.697536
	   62 B(6,1,27)       =    166.620915    -0.000173    -1.574470   165.046445
	   63 B(6,2,14)       =    121.805252    -0.000074     0.259641   122.064893
	   64 B(6,5,8)        =    111.713517    -0.000119    -0.893605   110.819911
	   65 B(6,5,9)        =    110.837597     0.000098     0.420593   111.258190
	   66 B(8,5,9)        =    107.243849    -0.000072    -0.325793   106.918056
	   67 B(10,4,11)      =    107.655190     0.000014     0.026179   107.681369
	   68 B(12,3,13)      =    107.438837    -0.000022    -0.306574   107.132263
	   69 B(14,15,16)     =    120.809467    -0.000251    -0.684464   120.125003
	   70 B(14,15,24)     =    119.129487     0.000225     0.712281   119.841768
	   71 B(14,19,18)     =    120.758819    -0.000153    -0.402741   120.356078
	   72 B(14,19,20)     =    119.142292     0.000281     0.959737   120.102029
	   73 B(15,14,19)     =    118.621159     0.000334     0.872091   119.493250
	   74 B(15,16,17)     =    120.048921     0.000026     0.075198   120.124119
	   75 B(15,16,23)     =    119.906259    -0.000058    -0.207639   119.698620
	   76 B(16,15,24)     =    120.057181     0.000027    -0.025381   120.031800
	   77 B(16,17,18)     =    119.650243     0.000129     0.365728   120.015971
	   78 B(16,17,22)     =    120.159915    -0.000052    -0.137886   120.022029
	   79 B(17,16,23)     =    120.043517     0.000033     0.133116   120.176633
	   80 B(17,18,19)     =    120.110679    -0.000085    -0.225434   119.885245
	   81 B(17,18,21)     =    120.030779     0.000068     0.210778   120.241557
	   82 B(18,17,22)     =    120.189618    -0.000077    -0.227689   119.961929
	   83 B(18,19,20)     =    120.098614    -0.000127    -0.559446   119.539168
	   84 B(19,18,21)     =    119.858405     0.000017     0.014536   119.872942
	   85 B(25,1,26)      =    115.306264     0.000466     0.809619   116.115883
	   86 B(25,1,27)      =     75.650287     0.000344     3.515179    79.165466
	   87 B(26,1,27)      =     49.666882     0.000611     5.319083    54.985964
	   88 D(1,2,3,4)      =    -85.226572    -0.000044    -1.116992   -86.343564
	   89 D(1,2,3,12)     =    153.276932    -0.000047    -1.246761   152.030172
	   90 D(1,2,3,13)     =     34.186976    -0.000024    -0.525612    33.661364
	   91 D(1,2,6,5)      =    111.638142     0.000024     0.340708   111.978850
	   92 D(1,2,6,7)      =   -106.393716     0.000109     4.495793  -101.897923
	   93 D(1,2,14,15)    =    138.017151     0.000011     0.189365   138.206516
	   94 D(1,2,14,19)    =    -44.076485     0.000010     0.016483   -44.060002
	   95 D(1,6,2,3)      =   -110.516925    -0.000036    -0.499401  -111.016327
	   96 D(1,6,2,14)     =    109.044759    -0.000085    -2.051285   106.993474
	   97 D(1,6,5,4)      =     84.161501    -0.000014     0.484541    84.646042
	   98 D(1,6,5,8)      =   -154.556588     0.000009     0.790234  -153.766354
	   99 D(1,6,5,9)      =    -35.019998    -0.000015     0.069914   -34.950083
	  100 D(2,1,6,5)      =    -95.964306    -0.000015    -0.417258   -96.381564
	  101 D(2,1,6,7)      =    109.524357     0.000004     2.307635   111.831991
	  102 D(2,3,4,5)      =     33.770540     0.000033     1.107607    34.878148
	  103 D(2,3,4,10)     =    -82.280465     0.000020     0.644726   -81.635739
	  104 D(2,3,4,11)     =    158.019943     0.000019     0.497959   158.517902
	  105 D(2,6,1,25)     =   -107.834530    -0.000040    -3.486269  -111.320799
	  106 D(2,6,1,26)     =    108.134828     0.000087     5.443441   113.578269
	  107 D(2,6,1,27)     =     91.135753    -0.000029    -2.950641    88.185112
	  108 D(2,6,5,4)      =     19.632931     0.000018     0.651244    20.284175
	  109 D(2,6,5,8)      =    140.914841     0.000041     0.956937   141.871779
	  110 D(2,6,5,9)      =    -99.548568     0.000017     0.236618   -99.311950
	  111 D(2,14,15,16)   =    178.092997    -0.000003    -0.226342   177.866655
	  112 D(2,14,15,24)   =     -2.621861     0.000001     0.053760    -2.568101
	  113 D(2,14,19,18)   =   -178.236678     0.000005     0.308290  -177.928389
	  114 D(2,14,19,20)   =      1.572949    -0.000001    -0.104591     1.468357
	  115 D(3,2,1,6)      =     94.605460    -0.000052    -0.710868    93.894592
	  116 D(3,2,1,25)     =   -158.126276    -0.000116    -4.386930  -162.513206
	  117 D(3,2,1,26)     =    -13.152074     0.000163     7.894592    -5.257483
	  118 D(3,2,1,27)     =    -70.105574    -0.000007     1.002541   -69.103033
	  119 D(3,2,6,5)      =      1.121217    -0.000012    -0.158693     0.962523
	  120 D(3,2,6,7)      =    143.089359     0.000073     3.996392   147.085750
	  121 D(3,2,14,15)    =    -68.830845    -0.000006    -0.978970   -69.809815
	  122 D(3,2,14,19)    =    109.075519    -0.000007    -1.151852   107.923667
	  123 D(3,4,5,6)      =    -32.864999    -0.000017    -0.825916   -33.690915
	  124 D(3,4,5,8)      =   -153.873654     0.000012     0.177427  -153.696227
	  125 D(3,4,5,9)      =     86.379143    -0.000007    -0.494088    85.885055
	  126 D(4,3,2,6)      =    -21.493186     0.000001    -0.451536   -21.944723
	  127 D(4,3,2,14)     =    120.375901    -0.000001     0.527543   120.903444
	  128 D(4,5,6,7)      =   -122.015351    -0.000057    -3.503319  -125.518670
	  129 D(5,4,3,12)     =    154.307289    -0.000002     0.131342   154.438631
	  130 D(5,4,3,13)     =    -85.422842     0.000000     0.209626   -85.213217
	  131 D(5,6,1,25)     =    156.201164    -0.000055    -3.903526   152.297637
	  132 D(5,6,1,26)     =     12.170522     0.000072     5.026183    17.196705
	  133 D(5,6,1,27)     =     -4.828553    -0.000044    -3.367899    -8.196452
	  134 D(5,6,2,14)     =   -139.317099    -0.000061    -1.710577  -141.027676
	  135 D(6,1,2,14)     =   -111.430967    -0.000043    -1.409282  -112.840249
	  136 D(6,2,1,25)     =    107.268264    -0.000064    -3.676062   103.592202
	  137 D(6,2,1,26)     =   -107.757534     0.000215     8.605460   -99.152074
	  138 D(6,2,1,27)     =   -164.711034     0.000046     1.713409  -162.997625
	  139 D(6,2,3,12)     =   -142.989682    -0.000003    -0.581305  -143.570987
	  140 D(6,2,3,13)     =     97.920361     0.000021     0.139843    98.060205
	  141 D(6,2,14,15)    =     66.947624    -0.000016    -0.167328    66.780297
	  142 D(6,2,14,19)    =   -115.146011    -0.000018    -0.340210  -115.486221
	  143 D(6,5,4,10)     =     83.157872    -0.000010    -0.463283    82.694589
	  144 D(6,5,4,11)     =   -157.063259    -0.000015    -0.482464  -157.545723
	  145 D(7,6,1,25)     =      1.689827    -0.000036    -1.178634     0.511193
	  146 D(7,6,1,26)     =   -142.340815     0.000091     7.751075  -134.589740
	  147 D(7,6,1,27)     =   -159.339890    -0.000025    -0.643006  -159.982897
	  148 D(7,6,2,14)     =      2.651043     0.000024     2.444508     5.095551
	  149 D(7,6,5,8)      =     -0.733441    -0.000034    -3.197626    -3.931067
	  150 D(7,6,5,9)      =    118.803150    -0.000058    -3.917946   114.885204
	  151 D(8,5,4,10)     =    -37.850783     0.000020     0.540059   -37.310723
	  152 D(8,5,4,11)     =     81.928087     0.000014     0.520878    82.448965
	  153 D(9,5,4,10)     =   -157.597986     0.000000    -0.131455  -157.729441
	  154 D(9,5,4,11)     =    -37.819116    -0.000005    -0.150636   -37.969753
	  155 D(10,4,3,12)    =     38.256283    -0.000016    -0.331539    37.924744
	  156 D(10,4,3,13)    =    158.526152    -0.000014    -0.253256   158.272897
	  157 D(11,4,3,12)    =    -81.443309    -0.000016    -0.478306   -81.921615
	  158 D(11,4,3,13)    =     38.826560    -0.000014    -0.400023    38.426537
	  159 D(12,3,2,14)    =     -1.120595    -0.000004     0.397775    -0.722820
	  160 D(13,3,2,14)    =   -120.210552     0.000019     1.118923  -119.091629
	  161 D(14,2,1,25)    =     -4.162703    -0.000107    -5.085344    -9.248047
	  162 D(14,2,1,26)    =    140.811498     0.000172     7.196178   148.007677
	  163 D(14,2,1,27)    =     83.857999     0.000003     0.304127    84.162126
	  164 D(14,15,16,17)  =      0.074700    -0.000000    -0.013888     0.060811
	  165 D(14,15,16,23)  =    179.659684     0.000002     0.113491   179.773175
	  166 D(14,19,18,17)  =      0.280010    -0.000001    -0.100653     0.179357
	  167 D(14,19,18,21)  =   -179.854428    -0.000002    -0.149842  -180.004271
	  168 D(15,14,19,18)  =     -0.304531     0.000001     0.097602    -0.206930
	  169 D(15,14,19,20)  =    179.505096    -0.000005    -0.315279   179.189816
	  170 D(15,16,17,18)  =     -0.102888     0.000000     0.013646    -0.089241
	  171 D(15,16,17,22)  =    179.725411     0.000001     0.089087   179.814498
	  172 D(16,15,14,19)  =      0.127485    -0.000000    -0.041013     0.086472
	  173 D(16,17,18,19)  =     -0.072650     0.000001     0.041964    -0.030686
	  174 D(16,17,18,21)  =   -179.937978     0.000001     0.091605  -179.846373
	  175 D(17,16,15,24)  =   -179.203838    -0.000004    -0.299764  -179.503602
	  176 D(17,18,19,20)  =   -179.527802     0.000005     0.307025  -179.220777
	  177 D(18,17,16,23)  =   -179.687298    -0.000002    -0.112921  -179.800219
	  178 D(19,14,15,24)  =    179.412627     0.000003     0.239089   179.651716
	  179 D(19,18,17,22)  =   -179.900897    -0.000001    -0.033587  -179.934484
	  180 D(20,19,18,21)  =      0.337760     0.000004     0.257836     0.595596
	  181 D(21,18,17,22)  =      0.233774     0.000000     0.016055     0.249829
	  182 D(22,17,16,23)  =      0.141001    -0.000001    -0.037481     0.103520
	  183 D(23,16,15,24)  =      0.381147    -0.000002    -0.172385     0.208762
	 ---------------------------------------------------------------------------
	Successfully symmetrized geometry.

  ==> Convergence Check <==

  Measures of convergence in internal coordinates in au.
  Criteria marked as inactive (o), active & met (*), and active & unmet ( ).
  --------------------------------------------------------------------------------------------- ~
   Step     Total Energy     Delta E     MAX Force     RMS Force      MAX Disp      RMS Disp    ~
  --------------------------------------------------------------------------------------------- ~
    Convergence Criteria    1.00e-06 *    3.00e-04 *             o    1.20e-03 *             o  ~
  --------------------------------------------------------------------------------------------- ~
      1    -464.44133786   -4.64e+02      4.67e-02      5.07e-03 o    1.50e-01      3.60e-02 o  ~
  ---------------------------------------------------------------------------------------------

	Writing optimization data to binary file.
	Structure for next step:
	Cartesian Geometry (in Angstrom)
	    C     1.0350964591   0.5430199763  -1.8609232202
	    C     0.7140779726   0.4284424520  -0.3874667776
	    C     1.5590270266   1.3189577087   0.5493367595
	    C     2.8254499000   0.4891691590   0.8476310835
	    C     3.1052361525  -0.2790582073  -0.4596192091
	    C     1.7070930090  -0.5535935190  -1.0184418784
	    H     1.3899389960  -1.5728545774  -1.2690100760
	    H     3.6538459497  -1.2187108890  -0.3000505545
	    H     3.7040106659   0.3272716895  -1.1601589479
	    H     2.5979443934  -0.2341159509   1.6492532042
	    H     3.6789865347   1.0990629544   1.1800976468
	    H     0.9829766034   1.5612411816   1.4529376867
	    H     1.8187314711   2.2776627721   0.0614979629
	    C    -0.6630098968   0.0164695320   0.0091097452
	    C    -0.8226022266  -0.9021250428   1.0665051768
	    C    -2.1059601119  -1.2719188353   1.4888424432
	    C    -3.2401626142  -0.7291318964   0.8587119424
	    C    -3.0876794312   0.1866342148  -0.1945288086
	    C    -1.8028988632   0.5592025630  -0.6161823292
	    H    -1.6903911083   1.2847052546  -1.4308585132
	    H    -3.9669354345   0.6128242994  -0.6853841088
	    H    -4.2408797036  -1.0211921610   1.1876354178
	    H    -2.2216423735  -1.9877517835   2.3071281260
	    H     0.0603367061  -1.3322909343   1.5532842834
	    H     0.3039469982   0.1752693114  -2.6148265673
	    H     1.8068364556   1.3313277100  -2.2367165944
	    H     0.7507155872   1.5865873440  -2.4337472264
			--------------------------
			 OPTKING Finished Execution 
			--------------------------

    Structure for next step:
    Molecular point group: c1
    Full point group: C1

    Geometry (in Angstrom), charge = 1, multiplicity = 1:

    C            1.038993285117     0.539346839104    -1.864916184001
    C            0.717974797289     0.424769314424    -0.391459735537
    C            1.562923854651     1.315284574607     0.545343805265
    C            2.829346732997     0.485496021662     0.843638130412
    C            3.109132986559    -0.282731347689    -0.463612167357
    C            1.710989837574    -0.557266660468    -1.022434838854
    H            1.393835823336    -1.576527722891    -1.273003037449
    H            3.657742785952    -1.222384033137    -0.304043512124
    H            3.707907502343     0.323598551449    -1.164151908902
    H            2.601841225506    -0.237789091106     1.645260254258
    H            3.682883371056     1.095389819390     1.176104695013
    H            0.986873429203     1.557568048452     1.448944735940
    H            1.822628300105     2.273989641723     0.057505006744
    C           -0.659113077546     0.012796392735     0.005116788840
    C           -0.818705407967    -0.905798185601     1.062512224575
    C           -2.102063298296    -1.275591979639     1.484849492620
    C           -3.236265805007    -0.732805038541     0.854718989343
    C           -3.083782621473     0.182961076217    -0.198521765813
    C           -1.799002048359     0.555529425868    -0.620175288089
    H           -1.686494293064     1.281032120363    -1.434851475238
    H           -3.963038628193     0.609151162550    -0.689377067960
    H           -4.236982898398    -1.024865304275     1.183642466067
    H           -2.217745560289    -1.991424930641     2.303135178675
    H            0.064233528230    -1.335964078815     1.549291333102
    H            0.307843821307     0.171596172750    -2.618819533973
    H            1.810733284585     1.327654575942    -2.240709559659
    H            0.754612412015     1.582914210975    -2.437740192417


Scratch directory: /tmp/
gradient() will perform analytic gradient computation.

*** tstart() called on skystd39.palmetto.clemson.edu
*** at Thu Oct 14 16:12:06 2021

   => Loading Basis Set <=

    Name: CC-PVDZ
    Role: ORBITAL
    Keyword: BASIS
    atoms 1-6, 14-19  entry C          line   138 file /home/maxbuskirk/.conda/envs/psifour/share/psi4/basis/cc-pvdz.gbs 
    atoms 7-13, 20-27 entry H          line    22 file /home/maxbuskirk/.conda/envs/psifour/share/psi4/basis/cc-pvdz.gbs 


         ---------------------------------------------------------
                                   SCF
               by Justin Turney, Rob Parrish, Andy Simmonett
                          and Daniel G. A. Smith
                              RHF Reference
                        1 Threads,  30517 MiB Core
         ---------------------------------------------------------

  ==> Geometry <==

    Molecular point group: c1
    Full point group: C1

    Geometry (in Angstrom), charge = 1, multiplicity = 1:

       Center              X                  Y                   Z               Mass       
    ------------   -----------------  -----------------  -----------------  -----------------
         C            1.038993285117     0.539346839104    -1.864916184001    12.000000000000
         C            0.717974797289     0.424769314424    -0.391459735537    12.000000000000
         C            1.562923854651     1.315284574607     0.545343805265    12.000000000000
         C            2.829346732997     0.485496021662     0.843638130412    12.000000000000
         C            3.109132986559    -0.282731347689    -0.463612167357    12.000000000000
         C            1.710989837574    -0.557266660468    -1.022434838854    12.000000000000
         H            1.393835823336    -1.576527722891    -1.273003037449     1.007825032230
         H            3.657742785952    -1.222384033137    -0.304043512124     1.007825032230
         H            3.707907502343     0.323598551449    -1.164151908902     1.007825032230
         H            2.601841225506    -0.237789091106     1.645260254258     1.007825032230
         H            3.682883371056     1.095389819390     1.176104695013     1.007825032230
         H            0.986873429203     1.557568048452     1.448944735940     1.007825032230
         H            1.822628300105     2.273989641723     0.057505006744     1.007825032230
         C           -0.659113077546     0.012796392735     0.005116788840    12.000000000000
         C           -0.818705407967    -0.905798185601     1.062512224575    12.000000000000
         C           -2.102063298296    -1.275591979639     1.484849492620    12.000000000000
         C           -3.236265805007    -0.732805038541     0.854718989343    12.000000000000
         C           -3.083782621473     0.182961076217    -0.198521765813    12.000000000000
         C           -1.799002048359     0.555529425868    -0.620175288089    12.000000000000
         H           -1.686494293064     1.281032120363    -1.434851475238     1.007825032230
         H           -3.963038628193     0.609151162550    -0.689377067960     1.007825032230
         H           -4.236982898398    -1.024865304275     1.183642466067     1.007825032230
         H           -2.217745560289    -1.991424930641     2.303135178675     1.007825032230
         H            0.064233528230    -1.335964078815     1.549291333102     1.007825032230
         H            0.307843821307     0.171596172750    -2.618819533973     1.007825032230
         H            1.810733284585     1.327654575942    -2.240709559659     1.007825032230
         H            0.754612412015     1.582914210975    -2.437740192417     1.007825032230

  Running in c1 symmetry.

  Rotational constants: A =      0.07205  B =      0.02007  C =      0.01804 [cm^-1]
  Rotational constants: A =   2160.04620  B =    601.56946  C =    540.89910 [MHz]
  Nuclear repulsion =  679.822365406821632

  Charge       = 1
  Multiplicity = 1
  Electrons    = 86
  Nalpha       = 43
  Nbeta        = 43

  ==> Algorithm <==

  SCF Algorithm Type is DF.
  DIIS enabled.
  MOM disabled.
  Fractional occupation disabled.
  Guess Type is READ.
  Energy threshold   = 1.00e-10
  Density threshold  = 1.00e-10
  Integral threshold = 1.00e-12

  ==> Primary Basis <==

  Basis Set: CC-PVDZ
    Blend: CC-PVDZ
    Number of shells: 117
    Number of basis functions: 243
    Number of Cartesian functions: 255
    Spherical Harmonics?: true
    Max angular momentum: 2

   => Loading Basis Set <=

    Name: (CC-PVDZ AUX)
    Role: JKFIT
    Keyword: DF_BASIS_SCF
    atoms 1-6, 14-19  entry C          line   121 file /home/maxbuskirk/.conda/envs/psifour/share/psi4/basis/cc-pvdz-jkfit.gbs 
    atoms 7-13, 20-27 entry H          line    51 file /home/maxbuskirk/.conda/envs/psifour/share/psi4/basis/cc-pvdz-jkfit.gbs 

   => Loading Basis Set <=

    Name: CC-PVDZ
    Role: ORBITAL
    Keyword: BASIS
    atoms 1-6, 14-19  entry C          line   138 file /home/maxbuskirk/.conda/envs/psifour/share/psi4/basis/cc-pvdz.gbs 
    atoms 7-13, 20-27 entry H          line    22 file /home/maxbuskirk/.conda/envs/psifour/share/psi4/basis/cc-pvdz.gbs 

  Reading orbitals from file /tmp/2ndcorner.mol.2956638.180.npy, no projection.

  ==> Integral Setup <==

  DFHelper Memory: AOs need 0.498 GiB; user supplied 22.352 GiB. Using in-core AOs.

  ==> MemDFJK: Density-Fitted J/K Matrices <==

    J tasked:                   Yes
    K tasked:                   Yes
    wK tasked:                   No
    OpenMP threads:               1
    Memory [MiB]:             22888
    Algorithm:                 Core
    Schwarz Cutoff:           1E-12
    Mask sparsity (%):       8.3117
    Fitting Condition:        1E-10

   => Auxiliary Basis Set <=

  Basis Set: (CC-PVDZ AUX)
    Blend: CC-PVDZ-JKFIT
    Number of shells: 423
    Number of basis functions: 1185
    Number of Cartesian functions: 1347
    Spherical Harmonics?: true
    Max angular momentum: 3

  Minimum eigenvalue in the overlap matrix is 3.2953239304E-04.
  Reciprocal condition number of the overlap matrix is 4.7003573928E-05.
    Using symmetric orthogonalization.

  ==> Pre-Iterations <==

  SCF Guess: Orbitals guess was supplied from a previous computation.

   -------------------------------------------------------
    Irrep   Nso     Nmo     Nalpha   Nbeta   Ndocc  Nsocc
   -------------------------------------------------------
     A        243     243      43      43      43       0
   -------------------------------------------------------
    Total     243     243      43      43      43       0
   -------------------------------------------------------

  ==> Iterations <==

                           Total Energy        Delta E     RMS |[F,P]|

   @DF-RHF iter   0:  -462.76473328741810   -4.62765e+02   5.28599e-04 
   @DF-RHF iter   1:  -462.79906842855769   -3.43351e-02   1.22678e-04 DIIS
   @DF-RHF iter   2:  -462.79976735263227   -6.98924e-04   5.43936e-05 DIIS
   @DF-RHF iter   3:  -462.79991119272711   -1.43840e-04   2.44419e-05 DIIS
   @DF-RHF iter   4:  -462.79995995683407   -4.87641e-05   8.63907e-06 DIIS
   @DF-RHF iter   5:  -462.79996731392021   -7.35709e-06   3.58775e-06 DIIS
   @DF-RHF iter   6:  -462.79996858452586   -1.27061e-06   1.02543e-06 DIIS
   @DF-RHF iter   7:  -462.79996869868694   -1.14161e-07   3.66501e-07 DIIS
   @DF-RHF iter   8:  -462.79996870955159   -1.08647e-08   1.47086e-07 DIIS
   @DF-RHF iter   9:  -462.79996871188661   -2.33501e-09   6.08266e-08 DIIS
   @DF-RHF iter  10:  -462.79996871237853   -4.91923e-10   3.06725e-08 DIIS
   @DF-RHF iter  11:  -462.79996871251154   -1.33014e-10   1.30951e-08 DIIS
   @DF-RHF iter  12:  -462.79996871254110   -2.95586e-11   4.36516e-09 DIIS
   @DF-RHF iter  13:  -462.79996871254389   -2.78533e-12   1.92420e-09 DIIS
   @DF-RHF iter  14:  -462.79996871254485   -9.66338e-13   7.05774e-10 DIIS
   @DF-RHF iter  15:  -462.79996871254366    1.19371e-12   2.58235e-10 DIIS
   @DF-RHF iter  16:  -462.79996871254457   -9.09495e-13   1.02807e-10 DIIS
   @DF-RHF iter  17:  -462.79996871254389    6.82121e-13   4.73811e-11 DIIS
  Energy and wave function converged.


  ==> Post-Iterations <==

    Orbital Energies [Eh]
    ---------------------

    Doubly Occupied:                                                      

       1A    -11.487504     2A    -11.471253     3A    -11.443346  
       4A    -11.397656     5A    -11.392307     6A    -11.388006  
       7A    -11.378513     8A    -11.376015     9A    -11.371788  
      10A    -11.364617    11A    -11.363712    12A    -11.361419  
      13A     -1.392209    14A     -1.273380    15A     -1.221749  
      16A     -1.167093    17A     -1.137362    18A     -1.125398  
      19A     -1.094845    20A     -0.972801    21A     -0.965402  
      22A     -0.950560    23A     -0.914404    24A     -0.867595  
      25A     -0.838611    26A     -0.800605    27A     -0.781337  
      28A     -0.759280    29A     -0.751546    30A     -0.742302  
      31A     -0.721128    32A     -0.707399    33A     -0.679018  
      34A     -0.666051    35A     -0.649710    36A     -0.640025  
      37A     -0.632640    38A     -0.619984    39A     -0.614091  
      40A     -0.610451    41A     -0.584310    42A     -0.458010  
      43A     -0.453998  

    Virtual:                                                              

      44A     -0.107409    45A     -0.021206    46A     -0.000675  
      47A      0.005287    48A      0.027678    49A      0.048898  
      50A      0.073449    51A      0.080309    52A      0.093158  
      53A      0.099362    54A      0.115264    55A      0.119938  
      56A      0.123952    57A      0.136190    58A      0.140580  
      59A      0.154935    60A      0.161612    61A      0.173136  
      62A      0.188259    63A      0.212500    64A      0.219606  
      65A      0.227589    66A      0.258383    67A      0.268192  
      68A      0.308318    69A      0.323030    70A      0.331649  
      71A      0.347610    72A      0.352234    73A      0.363345  
      74A      0.412896    75A      0.426658    76A      0.461712  
      77A      0.464052    78A      0.483862    79A      0.497719  
      80A      0.515077    81A      0.523116    82A      0.531331  
      83A      0.543324    84A      0.563753    85A      0.575078  
      86A      0.579743    87A      0.590590    88A      0.598569  
      89A      0.603337    90A      0.608280    91A      0.616260  
      92A      0.620575    93A      0.630386    94A      0.646116  
      95A      0.658909    96A      0.673719    97A      0.683125  
      98A      0.689820    99A      0.695529   100A      0.699463  
     101A      0.703179   102A      0.712008   103A      0.719007  
     104A      0.738878   105A      0.744071   106A      0.751853  
     107A      0.754665   108A      0.758192   109A      0.762934  
     110A      0.772070   111A      0.778825   112A      0.796786  
     113A      0.800729   114A      0.802898   115A      0.825751  
     116A      0.839336   117A      0.853417   118A      0.868101  
     119A      0.886271   120A      0.969179   121A      0.994432  
     122A      1.002091   123A      1.018452   124A      1.024793  
     125A      1.027882   126A      1.039456   127A      1.064090  
     128A      1.091065   129A      1.114604   130A      1.127677  
     131A      1.132076   132A      1.141625   133A      1.147960  
     134A      1.172359   135A      1.181213   136A      1.189191  
     137A      1.229027   138A      1.256271   139A      1.274891  
     140A      1.279280   141A      1.298877   142A      1.316500  
     143A      1.326964   144A      1.366689   145A      1.387046  
     146A      1.415461   147A      1.429117   148A      1.463156  
     149A      1.490827   150A      1.508551   151A      1.523131  
     152A      1.546750   153A      1.567826   154A      1.576485  
     155A      1.593262   156A      1.628928   157A      1.632576  
     158A      1.639685   159A      1.645679   160A      1.657960  
     161A      1.678704   162A      1.697678   163A      1.701143  
     164A      1.727699   165A      1.732084   166A      1.749079  
     167A      1.756745   168A      1.764762   169A      1.779256  
     170A      1.787800   171A      1.789742   172A      1.803847  
     173A      1.817061   174A      1.818998   175A      1.823461  
     176A      1.830931   177A      1.833461   178A      1.841521  
     179A      1.843942   180A      1.871824   181A      1.878075  
     182A      1.884670   183A      1.897017   184A      1.914624  
     185A      1.921060   186A      1.935064   187A      1.945953  
     188A      1.952216   189A      1.971175   190A      1.983728  
     191A      2.016076   192A      2.024345   193A      2.033003  
     194A      2.035628   195A      2.049848   196A      2.061533  
     197A      2.069624   198A      2.083346   199A      2.089452  
     200A      2.116279   201A      2.127251   202A      2.136945  
     203A      2.148372   204A      2.174335   205A      2.181046  
     206A      2.194458   207A      2.214190   208A      2.220425  
     209A      2.238248   210A      2.260000   211A      2.281855  
     212A      2.314383   213A      2.321688   214A      2.338844  
     215A      2.371401   216A      2.382736   217A      2.427390  
     218A      2.431523   219A      2.462304   220A      2.507852  
     221A      2.528915   222A      2.576415   223A      2.593342  
     224A      2.606617   225A      2.624537   226A      2.632268  
     227A      2.636351   228A      2.639672   229A      2.649772  
     230A      2.711627   231A      2.714317   232A      2.759613  
     233A      2.811828   234A      2.828717   235A      2.849592  
     236A      2.866061   237A      2.881391   238A      2.959441  
     239A      2.981667   240A      3.042645   241A      3.054388  
     242A      3.132209   243A      3.785347  

    Final Occupation by Irrep:
              A 
    DOCC [    43 ]

  @DF-RHF Final Energy:  -462.79996871254389

   => Energetics <=

    Nuclear Repulsion Energy =            679.8223654068216320
    One-Electron Energy =               -1960.0658012697904269
    Two-Electron Energy =                 817.4434671504250218
    Total Energy =                       -462.7999687125438868

Computation Completed


Properties will be evaluated at   0.000000,   0.000000,   0.000000 [a0]

Properties computed using the SCF density matrix

  Nuclear Dipole Moment: [e a0]
     X:     8.1437      Y:     2.6567      Z:    -2.6238

  Electronic Dipole Moment: [e a0]
     X:    -6.4388      Y:    -1.7563      Z:     0.5051

  Dipole Moment: [e a0]
     X:     1.7048      Y:     0.9004      Z:    -2.1187     Total:     2.8647

  Dipole Moment: [D]
[...]
      10       -0.000649586134    -0.000320327766    -0.000153893092
      11        0.000036514192    -0.000161101142     0.000634432297
      12       -0.000418197940     0.000437362265    -0.000133816569
      13       -0.000143757325     0.000181577786    -0.000257552342
      14       -0.000023421073     0.000231789108    -0.001525379791
      15        0.000268452624     0.000182874275     0.001060255003
      16        0.000295479815     0.000214552712    -0.000036969251
      17       -0.000269221179    -0.000028315650    -0.000080835914
      18       -0.000061430375     0.000015906095    -0.000123429430
      19       -0.000003559467    -0.000620385903    -0.001109243112
      20       -0.000035637877     0.000250239734     0.000026540046
      21       -0.000174514911     0.000082196519    -0.000139882008
      22       -0.000000389112    -0.000008217873    -0.000000591150
      23        0.000015790468    -0.000133280308     0.000177939452
      24        0.000055276255    -0.000068335403    -0.000041623260
      25        0.001927281761    -0.003000914980    -0.001869848921
      26        0.002185307544    -0.002577460881    -0.000875464294
      27        0.011000994036    -0.013107920801    -0.023685639578


*** tstop() called on skystd39.palmetto.clemson.edu at Thu Oct 14 16:21:14 2021
Module time:
	user time   =      48.45 seconds =       0.81 minutes
	system time =       2.54 seconds =       0.04 minutes
	total time  =         51 seconds =       0.85 minutes
Total time:
	user time   =     578.45 seconds =       9.64 minutes
	system time =      29.54 seconds =       0.49 minutes
	total time  =        610 seconds =      10.17 minutes

			-----------------------------------------
			 OPTKING 2.0: for geometry optimizations 
			  - R.A. King,  Bethel University        
			-----------------------------------------

	Previous internal coordinate definitions found.
	---Fragment 1 Geometry and Gradient---
	 C           1.9170986359        1.4467925075       -3.3977363475
	 C           1.4012445190        0.8791216941       -0.5343311486
	 C           2.7157185872        2.7675730082        1.2565853606
	 C           5.1489341310        1.3699894411        2.0386077570
	 C           5.9305466393       -0.0938294004       -0.3632880288
	 C           3.3834022686       -0.7937202035       -1.4825407399
	 H           2.9870574359       -2.6417159052       -2.3253092731
	 H           7.0321292218       -1.8263299203       -0.0193938695
	 H           7.0610643759        1.0862627344       -1.6558239288
	 H           4.6860883346        0.0015140662        3.5425418672
	 H           6.6477418588        2.6185217474        2.7551679074
	 H           1.4698784459        3.2187694968        2.8560616372
	 H           3.1325971185        4.5526930477        0.2624853058
	 C          -1.2216610308       -0.0949807071       -0.0923578935
	 C          -1.5471169781       -1.9366874898        1.8088040338
	 C          -3.9749422646       -2.8379357349        2.3677541914
	 C          -6.0767980995       -1.9122287183        1.0334534802
	 C          -5.7520336163       -0.0731260354       -0.8525769770
	 C          -3.3281446802        0.8472141726       -1.4129831086
	 H          -3.1011456208        2.3089129871       -2.8585412617
	 H          -7.3870739667        0.6541501233       -1.8859479012
	 H          -7.9676769360       -2.6227343175        1.4664740468
	 H          -4.2251736523       -4.2669090817        3.8395864424
	 H           0.0915746912       -2.6584594711        2.8488834950
	 H           1.3200953402       -0.1268653552       -4.6662893978
	 H           3.9021948756        1.9113839158       -3.9342231815
	 H           1.0648817262        2.9323825201       -4.6239422315
	            -0.0150176434        0.0149218533        0.0509666270
	             0.0015198845       -0.0011856586        0.0065858916
	             0.0016635399       -0.0011769224       -0.0006803064
	             0.0001411733       -0.0002401969       -0.0006715656
	             0.0009642736       -0.0004731727        0.0021864352
	            -0.0033061499        0.0066151534       -0.0318550582
	            -0.0000022552       -0.0013757537        0.0017425949
	             0.0006604812        0.0002310981       -0.0004313112
	            -0.0006286852        0.0011133617        0.0002916947
	            -0.0006495861       -0.0003203278       -0.0001538931
	             0.0000365142       -0.0001611011        0.0006344323
	            -0.0004181979        0.0004373623       -0.0001338166
	            -0.0001437573        0.0001815778       -0.0002575523
	            -0.0000234211        0.0002317891       -0.0015253798
	             0.0002684526        0.0001828743        0.0010602550
	             0.0002954798        0.0002145527       -0.0000369693
	            -0.0002692212       -0.0000283157       -0.0000808359
	            -0.0000614304        0.0000159061       -0.0001234294
	            -0.0000035595       -0.0006203859       -0.0011092431
	            -0.0000356379        0.0002502397        0.0000265400
	            -0.0001745149        0.0000821965       -0.0001398820
	            -0.0000003891       -0.0000082179       -0.0000005911
	             0.0000157905       -0.0001332803        0.0001779395
	             0.0000552763       -0.0000683354       -0.0000416233
	             0.0019272818       -0.0030009150       -0.0018698489
	             0.0021853075       -0.0025774609       -0.0008754643
	             0.0110009940       -0.0131079208       -0.0236856396

	---Fragment 1 Intrafragment Coordinates---
	 - Coordinate -           - BOHR/RAD -       - ANG/DEG -
	 R(1,2)           =         2.964362	       1.568673
	 R(1,6)           =         3.292099	       1.742104
	 R(1,25)          =         2.107614	       1.115302
	 R(1,26)          =         2.108144	       1.115582
	 R(1,27)          =         2.106379	       1.114648
	 R(2,3)           =         2.915728	       1.542937
	 R(2,6)           =         2.761603	       1.461377
	 R(2,14)          =         2.832640	       1.498969
	 R(3,4)           =         2.912960	       1.541472
	 R(3,12)          =         2.077022	       1.099113
	 R(3,13)          =         2.085348	       1.103519
	 R(4,5)           =         2.919381	       1.544870
	 R(4,10)          =         2.085370	       1.103530
	 R(4,11)          =         2.078152	       1.099711
	 R(5,6)           =         2.868888	       1.518150
	 R(5,8)           =         2.081659	       1.101567
	 R(5,9)           =         2.083587	       1.102587
	 R(6,7)           =         2.069405	       1.095082
	 R(14,15)         =         2.666875	       1.411249
	 R(14,19)         =         2.658770	       1.406960
	 R(15,16)         =         2.649341	       1.401971
	 R(15,24)         =         2.070756	       1.095797
	 R(16,17)         =         2.656142	       1.405570
	 R(16,23)         =         2.066609	       1.093602
	 R(17,18)         =         2.654220	       1.404553
	 R(17,22)         =         2.065853	       1.093202
	 R(18,19)         =         2.652606	       1.403699
	 R(18,21)         =         2.066432	       1.093509
	 R(19,20)         =         2.068267	       1.094480
	 B(1,2,3)         =         1.972326	     113.005956
	 B(1,2,6)         =         1.223280	      70.088771
	 B(1,2,14)        =         1.958110	     112.191424
	 B(1,6,2)         =         1.009602	      57.845921
	 B(1,6,5)         =         2.044719	     117.153794
	 B(1,6,7)         =         1.860356	     106.590560
	 B(2,1,6)         =         0.908711	      52.065307
	 B(2,1,25)        =         1.970468	     112.899527
	 B(2,1,26)        =         2.039668	     116.864361
	 B(2,1,27)        =         2.248451	     128.826759
	 B(2,3,4)         =         1.803622	     103.339947
	 B(2,3,12)        =         1.921212	     110.077358
	 B(2,3,13)        =         1.930234	     110.594286
	 B(2,6,5)         =         1.934275	     110.825784
	 B(2,6,7)         =         2.145163	     122.908767
	 B(2,14,15)       =         2.050721	     117.497673
	 B(2,14,19)       =         2.134419	     122.293203
	 B(3,2,6)         =         1.854224	     106.239201
	 B(3,2,14)        =         2.146389	     122.979004
	 B(3,4,5)         =         1.816596	     104.083276
	 B(3,4,10)        =         1.899758	     108.848131
	 B(3,4,11)        =         1.989702	     114.001551
	 B(4,3,12)        =         1.980699	     113.485665
	 B(4,3,13)        =         1.951636	     111.820527
	 B(4,5,6)         =         1.777871	     101.864514
	 B(4,5,8)         =         2.007630	     115.028737
	 B(4,5,9)         =         1.951592	     111.817968
	 B(5,4,10)        =         1.900464	     108.888588
	 B(5,4,11)        =         1.973423	     113.068831
	 B(5,6,7)         =         2.149318	     123.146856
	 B(6,1,25)        =         1.538956	      88.175691
	 B(6,1,26)        =         1.449124	      83.028664
	 B(6,1,27)        =         3.093877	     177.266121
	 B(6,2,14)        =         2.105838	     120.655628
	 B(6,5,8)         =         1.908423	     109.344587
	 B(6,5,9)         =         1.958310	     112.202899
	 B(8,5,9)         =         1.861610	     106.662391
	 B(10,4,11)       =         1.881428	     107.797870
	 B(12,3,13)       =         1.876595	     107.520979
	 B(14,15,16)      =         2.091115	     119.812049
	 B(14,15,24)      =         2.096928	     120.145140
	 B(14,19,18)      =         2.089869	     119.740697
	 B(14,19,20)      =         2.106734	     120.706987
	 B(15,14,19)      =         2.096856	     120.140978
	 B(15,16,17)      =         2.095105	     120.040681
	 B(15,16,23)      =         2.090284	     119.764444
	 B(16,15,24)      =         2.095140	     120.042688
	 B(16,17,18)      =         2.096264	     120.107058
	 B(16,17,22)      =         2.093397	     119.942817
	 B(17,16,23)      =         2.097790	     120.194533
	 B(17,18,19)      =         2.097093	     120.154575
	 B(17,18,21)      =         2.097159	     120.158371
	 B(18,17,22)      =         2.093523	     119.950055
	 B(18,19,20)      =         2.086506	     119.547978
	 B(19,18,21)      =         2.088925	     119.686581
	 B(25,1,26)       =         1.852615	     106.147023
	 B(25,1,27)       =         1.632448	      93.532402
	 B(26,1,27)       =         1.648273	      94.439112
	 D(1,2,3,4)       =        -1.700301	     -97.420048
	 D(1,2,3,12)      =         2.462026	     141.063712
	 D(1,2,3,13)      =         0.390852	      22.394187
	 D(1,2,6,5)       =         1.915195	     109.732591
	 D(1,2,6,7)       =        -1.565711	     -89.708654
	 D(1,2,14,15)     =         2.519993	     144.384976
	 D(1,2,14,19)     =        -0.673974	     -38.615894
	 D(1,6,2,3)       =        -1.904396	    -109.113855
	 D(1,6,2,14)      =         1.825841	     104.612963
	 D(1,6,5,4)       =         1.483760	      85.013164
	 D(1,6,5,8)       =        -2.667751	    -152.850878
	 D(1,6,5,9)       =        -0.605947	     -34.718197
	 D(2,1,6,5)       =        -1.720890	     -98.599728
	 D(2,1,6,7)       =         2.074100	     118.837185
	 D(2,3,4,5)       =         0.624668	      35.790847
	 D(2,3,4,10)      =        -1.399847	     -80.205308
	 D(2,3,4,11)      =         2.782529	     159.427148
	 D(2,6,1,25)      =        -2.115814	    -121.227210
	 D(2,6,1,26)      =         2.308392	     132.261091
	 D(2,6,1,27)      =         1.920937	     110.061589
	 D(2,6,5,4)       =         0.373946	      21.425516
	 D(2,6,5,8)       =         2.505620	     143.561475
	 D(2,6,5,9)       =        -1.715761	     -98.305845
	 D(2,14,15,16)    =         3.097542	     177.476078
	 D(2,14,15,24)    =        -0.041824	      -2.396339
	 D(2,14,19,18)    =        -3.100742	    -177.659437
	 D(2,14,19,20)    =         0.027568	       1.579541
	 D(3,2,1,6)       =         1.740948	      99.748974
	 D(3,2,1,25)      =         2.929437	     167.844393
	 D(3,2,1,26)      =         0.773415	      44.313442
	 D(3,2,1,27)      =        -1.343103	     -76.954116
	 D(3,2,6,5)       =         0.010799	       0.618735
	 D(3,2,6,7)       =         2.813078	     161.177491
	 D(3,2,14,15)     =        -1.316901	     -75.452893
	 D(3,2,14,19)     =         1.772316	     101.546236
	 D(3,4,5,6)       =        -0.607571	     -34.811251
	 D(3,4,5,8)       =        -2.669530	    -152.952820
	 D(3,4,5,9)       =         1.486865	      85.191077
	 D(4,3,2,6)       =        -0.394282	     -22.590676
	 D(4,3,2,14)      =         2.141556	     122.702109
	 D(4,5,6,7)       =        -2.427378	    -139.078524
	 D(5,4,3,12)      =         2.704928	     154.980982
	 D(5,4,3,13)      =        -1.451742	     -83.178664
	 D(5,6,1,25)      =         2.446481	     140.173061
	 D(5,6,1,26)      =         0.587502	      33.661362
	 D(5,6,1,27)      =         0.200047	      11.461860
	 D(5,6,2,14)      =        -2.542150	    -145.654446
	 D(6,1,2,14)      =        -2.024083	    -115.971413
	 D(6,2,1,25)      =         1.188489	      68.095420
	 D(6,2,1,26)      =        -0.967533	     -55.435532
	 D(6,2,1,27)      =        -3.084051	    -176.703089
	 D(6,2,3,12)      =        -2.515140	    -144.106915
	 D(6,2,3,13)      =         1.696871	      97.223560
	 D(6,2,14,15)     =         1.136067	      65.091847
	 D(6,2,14,19)     =        -2.057901	    -117.909024
	 D(6,5,4,10)      =         1.416449	      81.156533
	 D(6,5,4,11)      =        -2.775968	    -159.051239
	 D(7,6,1,25)      =        -0.041714	      -2.390025
	 D(7,6,1,26)      =        -1.900694	    -108.901724
	 D(7,6,1,27)      =        -2.288148	    -131.101226
	 D(7,6,2,14)      =         0.260129	      14.904309
	 D(7,6,5,8)       =        -0.295704	     -16.942565
	 D(7,6,5,9)       =         1.766101	     101.190116
	 D(8,5,4,10)      =        -0.645511	     -36.985036
	 D(8,5,4,11)      =         1.445258	      82.807192
	 D(9,5,4,10)      =        -2.772301	    -158.841139
	 D(9,5,4,11)      =        -0.681532	     -39.048911
	 D(10,4,3,12)     =         0.680414	      38.984826
	 D(10,4,3,13)     =         2.806929	     160.825180
	 D(11,4,3,12)     =        -1.420396	     -81.382718
	 D(11,4,3,13)     =         0.706119	      40.457636
	 D(12,3,2,14)     =         0.020697	       1.185869
	 D(13,3,2,14)     =        -2.050477	    -117.483656
	 D(14,2,1,25)     =        -0.835594	     -47.875993
	 D(14,2,1,26)     =        -2.991616	    -171.406945
	 D(14,2,1,27)     =         1.175052	      67.325498
	 D(14,15,16,17)   =         0.002320	       0.132930
	 D(14,15,16,23)   =         3.140207	     179.920622
	 D(14,19,18,17)   =         0.009167	       0.525253
	 D(14,19,18,21)   =        -3.136787	    -179.724649
	 D(15,14,19,18)   =        -0.012873	      -0.737544
	 D(15,14,19,20)   =         3.115438	     178.501434
	 D(15,16,17,18)   =        -0.006031	      -0.345530
	 D(15,16,17,22)   =         3.137242	     179.750714
	 D(16,15,14,19)   =         0.007144	       0.409337
	 D(16,17,18,19)   =         0.000263	       0.015052
	 D(16,17,18,21)   =        -3.136948	    -179.733859
	 D(17,16,15,24)   =        -3.141497	    -179.994520
	 D(17,18,19,20)   =        -3.119298	    -178.722608
	 D(18,17,16,23)   =         3.139284	     179.867700
	 D(19,14,15,24)   =        -3.132222	    -179.463081
	 D(19,18,17,22)   =         3.140175	     179.918801
	 D(20,19,18,21)   =         0.017933	       1.027490
	 D(21,18,17,22)   =         0.002965	       0.169890
	 D(22,17,16,23)   =        -0.000629	      -0.036056
	 D(23,16,15,24)   =        -0.003610	      -0.206828

	Current energy   :      -464.4988549930

	Energy change for the previous step:
		Projected    :        -0.0039248741
		Actual       :        -0.0040241892

	Performing Bofill update.
	Previous computed or guess Hessian on step 1.
	Steps to be used in Hessian update: 9 8
	Taking PRFO optimization step.
	Maximizing along 1 lowest eigenvalue of Hessian.

 RFO min eigenvalues
 -0.003692 -0.000000 -0.000000 -0.000000 -0.000000 -0.000000 -0.000000 -0.000000
 -0.000000 -0.000000 -0.000000 -0.000000 -0.000000 -0.000000 -0.000000 -0.000000
 -0.000000 -0.000000 -0.000000 -0.000000 -0.000000 -0.000000 -0.000000 -0.000000
 -0.000000 -0.000000 -0.000000 -0.000000 -0.000000 -0.000000 -0.000000 -0.000000
 -0.000000 -0.000000 -0.000000 -0.000000 -0.000000 -0.000000 -0.000000 -0.000000
 -0.000000 -0.000000 -0.000000 -0.000000 -0.000000 -0.000000 -0.000000 -0.000000
 -0.000000 -0.000000 -0.000000 -0.000000 -0.000000  0.000000  0.000000  0.000000
  0.000000  0.000000  0.000000  0.000000  0.000000  0.000000  0.000000  0.000000
  0.000000  0.000000  0.000000  0.000000  0.000000  0.000000  0.000000  0.000000
  0.000000  0.000000  0.000000  0.000000  0.000000  0.000000  0.000000  0.000000
  0.000000  0.000000  0.000000  0.000000  0.000000  0.000000  0.000000  0.000000
  0.000000  0.000000  0.000000  0.000000  0.000000  0.000000  0.000000  0.000000
  0.000000  0.000000  0.000000  0.000000  0.000000  0.000000  0.000000  0.000000
  0.000000  0.000000  0.000000  0.000000  0.000000  0.003560  0.005728  0.007837
  0.012458  0.012794  0.015307  0.016993  0.017264  0.017356  0.017490  0.017536
  0.017586  0.017607  0.017663  0.018246  0.021382  0.027786  0.029180  0.037411
  0.043082  0.050666  0.053931  0.058555  0.061110  0.068818  0.069080  0.069809
  0.070268  0.078191  0.080081  0.087519  0.091419  0.098095  0.103776  0.110688
  0.159933  0.159983  0.159998  0.159999  0.160026  0.165885  0.173662  0.199757
  0.204057  0.219998  0.220017  0.234626  0.249773  0.263008  0.265828  0.276309
  0.290585  0.301749  0.331167  0.331295  0.331545  0.331825  0.333284  0.335055
  0.335223  0.341730  0.342643  0.343065  0.343069  0.343326  0.343469  0.343513
  0.346163  0.406926  0.407798  0.442309  0.445083  0.448664  0.450528

 RFO max eigenvalues
 -0.013079  0.000003
	Change in coordinate exceeds step limit of    0.50000.
	Scaling displacements by    0.92372
	|RFO target step|  :        0.5000000000
	RFO gradient       :       -0.0068154412
	RFO hessian        :        0.0089018616
	Projected Delta(E) :       -0.0018359903

	Back-transformation to cartesian coordinates...
	The INTCO_EXCEPTion handler:
	TORS::compute_val: unable to compute torsion value
	Dynamic level is 0.
	exc.g_really_quit() is 0.

  **** Optimization has failed! (in 10 steps) ****
			--------------------------
			 OPTKING Finished Execution 
			--------------------------
	Removing binary optimization data file.
	Cleaning optimization helper files.

PsiException: Could not converge geometry optimization in 9 iterations.


Traceback (most recent call last):
  File "/home/maxbuskirk/.conda/envs/psifour/bin/psi4", line 333, in <module>
    exec(content)
  File "<string>", line 58, in <module>
  File "/home/maxbuskirk/.conda/envs/psifour/lib//python3.9/site-packages/psi4/driver/driver.py", line 1433, in optimize
    raise OptimizationConvergenceError("""geometry optimization""", n - 1, wfn)

psi4.driver.p4util.exceptions.OptimizationConvergenceError: Could not converge geometry optimization in 9 iterations.


Printing out the relevant lines from the Psithon --> Python processed input file:
    core.set_global_option("BASIS", "cc-pVDZ")
    core.set_global_option("REFERENCE", "rhf")
    core.set_global_option("GEOM_MAXITER", 400)
    mol.update_geometry()
    mol.symmetrize(1e-3)
--> e, wfn = optimize('mp2', return_wfn=True)
    oeprop(wfn, "MULLIKEN_CHARGES")
    mol.print_out()
    print_variables()

!------------------------------------------------------------!
!                                                            !
!  Could not converge geometry optimization in 9 iterations. !
!                                                            !
!------------------------------------------------------------!

    Psi4 stopped on: Thursday, 14 October 2021 04:21PM
    Psi4 wall time for execution: 0:10:10.97

*** Psi4 encountered an error. Buy a developer more coffee!
*** Resources and help at github.com/psi4/psi4.
