
    -----------------------------------------------------------------------
          Psi4: An Open-Source Ab Initio Electronic Structure Package
                               Psi4 1.4 release

                         Git: Rev {HEAD} 9485035 


    D. G. A. Smith, L. A. Burns, A. C. Simmonett, R. M. Parrish,
    M. C. Schieber, R. Galvelis, P. Kraus, H. Kruse, R. Di Remigio,
    A. Alenaizan, A. M. James, S. Lehtola, J. P. Misiewicz, M. Scheurer,
    R. A. Shaw, J. B. Schriber, Y. Xie, Z. L. Glick, D. A. Sirianni,
    J. S. O'Brien, J. M. Waldrop, A. Kumar, E. G. Hohenstein,
    B. P. Pritchard, B. R. Brooks, H. F. Schaefer III, A. Yu. Sokolov,
    K. Patkowski, A. E. DePrince III, U. Bozkaya, R. A. King,
    F. A. Evangelista, J. M. Turney, T. D. Crawford, C. D. Sherrill,
    J. Chem. Phys. 152(18) 184108 (2020). https://doi.org/10.1063/5.0006002

                            Additional Code Authors
    E. T. Seidl, C. L. Janssen, E. F. Valeev, M. L. Leininger,
    J. F. Gonthier, R. M. Richard, H. R. McAlexander, M. Saitow, X. Wang,
    P. Verma, and M. H. Lechner

             Previous Authors, Complete List of Code Contributors,
                       and Citations for Specific Modules
    https://github.com/psi4/psi4/blob/master/codemeta.json
    https://github.com/psi4/psi4/graphs/contributors
    http://psicode.org/psi4manual/master/introduction.html#citing-psifour

    -----------------------------------------------------------------------


    Psi4 started on: Thursday, 14 October 2021 04:28PM

    Process ID: 2959647
    Host:       skystd39.palmetto.clemson.edu
    PSIDATADIR: /home/maxbuskirk/.conda/envs/psifour/share/psi4
    Memory:     500.0 MiB
    Threads:    1
    
  ==> Input File <==

--------------------------------------------------------------------------
memory 32 GB

molecule mol {
1 1
C     0.000000     0.000000     0.000000
 C     0.000000     0.000000     1.408159
 C     1.238390     0.000000     2.083940
 C     2.446171     0.002671     1.370515
 C     2.433389     0.006984    -0.034905
 C     1.206959     0.006405    -0.718344
 C    -1.272775    -0.045945     2.187365
 C    -1.628447    -1.335766     2.950642
 C    -1.737379    -0.899581     4.425121
 C    -2.298884     0.536035     4.367965
 C    -1.714925     1.117079     3.080374
 C    -2.447067     0.821045     1.785889
 H    -1.105209     2.024766     3.117431
 H    -2.010969     1.129559     5.250215
 H    -3.402905     0.523128     4.327995
 H    -0.722722    -0.866532     4.860367
 H    -2.343692    -1.584853     5.041474
 H    -0.859446    -2.109250     2.797197
 H    -2.588575    -1.747216     2.590082
 H    -0.956167    -0.008250    -0.533134
 H     1.189730     0.008722    -1.812628
 O     3.620201     0.015345    -0.739041
 H     3.398462     0.008262     1.909827
 H     1.248128     0.009821     3.179443
 H    -2.297185     1.520127     0.958263
 H    -3.450761     0.388542     1.857464
 H    -3.244899     0.396095     0.858224
 H     3.436103     0.017283    -1.667972
}

set scf_type df
set opt_type ts
set basis cc-pVDZ
set reference rhf
set geom_maxiter 400


mol.update_geometry()
mol.symmetrize(1e-3)

e, wfn = optimize('mp2', return_wfn=True)
oeprop(wfn, "MULLIKEN_CHARGES")
mol.print_out()
print_variables()
--------------------------------------------------------------------------

  Memory set to  29.802 GiB by Python driver.

Scratch directory: /tmp/
gradient() will perform analytic gradient computation.

*** tstart() called on skystd39.palmetto.clemson.edu
*** at Thu Oct 14 16:28:56 2021

   => Loading Basis Set <=

    Name: CC-PVDZ
    Role: ORBITAL
    Keyword: BASIS
    atoms 1-12         entry C          line   138 file /home/maxbuskirk/.conda/envs/psifour/share/psi4/basis/cc-pvdz.gbs 
    atoms 13-21, 23-28 entry H          line    22 file /home/maxbuskirk/.conda/envs/psifour/share/psi4/basis/cc-pvdz.gbs 
    atoms 22           entry O          line   198 file /home/maxbuskirk/.conda/envs/psifour/share/psi4/basis/cc-pvdz.gbs 


         ---------------------------------------------------------
                                   SCF
               by Justin Turney, Rob Parrish, Andy Simmonett
                          and Daniel G. A. Smith
                              RHF Reference
                        1 Threads,  30517 MiB Core
         ---------------------------------------------------------

  ==> Geometry <==

    Molecular point group: c1
    Full point group: C1

    Geometry (in Angstrom), charge = 1, multiplicity = 1:

       Center              X                  Y                   Z               Mass       
    ------------   -----------------  -----------------  -----------------  -----------------
         C            0.006894999362    -0.014050997222    -1.690630330265    12.000000000000
         C            0.006894999362    -0.014050997222    -0.282471330265    12.000000000000
         C            1.245284999362    -0.014050997222     0.393309669735    12.000000000000
         C            2.453065999362    -0.011379997222    -0.320115330265    12.000000000000
         C            2.440283999362    -0.007066997222    -1.725535330265    12.000000000000
         C            1.213853999362    -0.007645997222    -2.408974330265    12.000000000000
         C           -1.265880000638    -0.059995997222     0.496734669735    12.000000000000
         C           -1.621552000638    -1.349816997222     1.260011669735    12.000000000000
         C           -1.730484000638    -0.913631997222     2.734490669735    12.000000000000
         C           -2.291989000638     0.521984002778     2.677334669735    12.000000000000
         C           -1.708030000638     1.103028002778     1.389743669735    12.000000000000
         C           -2.440172000638     0.806994002778     0.095258669735    12.000000000000
         H           -1.098314000638     2.010715002778     1.426800669735     1.007825032230
         H           -2.004074000638     1.115508002778     3.559584669735     1.007825032230
         H           -3.396010000638     0.509077002778     2.637364669735     1.007825032230
         H           -0.715827000638    -0.880582997222     3.169736669735     1.007825032230
         H           -2.336797000638    -1.598903997222     3.350843669735     1.007825032230
         H           -0.852551000638    -2.123300997222     1.106566669735     1.007825032230
         H           -2.581680000638    -1.761266997222     0.899451669735     1.007825032230
         H           -0.949272000638    -0.022300997222    -2.223764330265     1.007825032230
         H            1.196624999362    -0.005328997222    -3.503258330265     1.007825032230
         O            3.627095999362     0.001294002778    -2.429671330265    15.994914619570
         H            3.405356999362    -0.005788997222     0.219196669735     1.007825032230
         H            1.255022999362    -0.004229997222     1.488812669735     1.007825032230
         H           -2.290290000638     1.506076002778    -0.732367330265     1.007825032230
         H           -3.443866000638     0.374491002778     0.166833669735     1.007825032230
         H           -3.238004000638     0.382044002778    -0.832406330265     1.007825032230
         H            3.442997999362     0.003232002778    -3.358602330265     1.007825032230

  Running in c1 symmetry.

  Rotational constants: A =      0.07067  B =      0.01432  C =      0.01321 [cm^-1]
  Rotational constants: A =   2118.57514  B =    429.33136  C =    396.01273 [MHz]
  Nuclear repulsion =  774.785848712248708

  Charge       = 1
  Multiplicity = 1
  Electrons    = 94
  Nalpha       = 47
  Nbeta        = 47

  ==> Algorithm <==

  SCF Algorithm Type is DF.
  DIIS enabled.
  MOM disabled.
  Fractional occupation disabled.
  Guess Type is SAD.
  Energy threshold   = 1.00e-10
  Density threshold  = 1.00e-10
  Integral threshold = 1.00e-12

  ==> Primary Basis <==

  Basis Set: CC-PVDZ
    Blend: CC-PVDZ
    Number of shells: 123
    Number of basis functions: 257
    Number of Cartesian functions: 270
    Spherical Harmonics?: true
    Max angular momentum: 2

   => Loading Basis Set <=

    Name: (CC-PVDZ AUX)
    Role: JKFIT
    Keyword: DF_BASIS_SCF
    atoms 1-12         entry C          line   121 file /home/maxbuskirk/.conda/envs/psifour/share/psi4/basis/cc-pvdz-jkfit.gbs 
    atoms 13-21, 23-28 entry H          line    51 file /home/maxbuskirk/.conda/envs/psifour/share/psi4/basis/cc-pvdz-jkfit.gbs 
    atoms 22           entry O          line   221 file /home/maxbuskirk/.conda/envs/psifour/share/psi4/basis/cc-pvdz-jkfit.gbs 

  ==> Integral Setup <==

  DFHelper Memory: AOs need 0.568 GiB; user supplied 22.352 GiB. Using in-core AOs.

  ==> MemDFJK: Density-Fitted J/K Matrices <==

    J tasked:                   Yes
    K tasked:                   Yes
    wK tasked:                   No
    OpenMP threads:               1
    Memory [MiB]:             22888
    Algorithm:                 Core
    Schwarz Cutoff:           1E-12
    Mask sparsity (%):      11.6580
    Fitting Condition:        1E-10

   => Auxiliary Basis Set <=

  Basis Set: (CC-PVDZ AUX)
    Blend: CC-PVDZ-JKFIT
    Number of shells: 447
    Number of basis functions: 1255
    Number of Cartesian functions: 1428
    Spherical Harmonics?: true
    Max angular momentum: 3

  Minimum eigenvalue in the overlap matrix is 3.3879055506E-04.
  Reciprocal condition number of the overlap matrix is 4.8104910545E-05.
    Using symmetric orthogonalization.

  ==> Pre-Iterations <==

  SCF Guess: Superposition of Atomic Densities via on-the-fly atomic UHF (no occupation information).

   -------------------------
    Irrep   Nso     Nmo    
   -------------------------
     A        257     257 
   -------------------------
    Total     257     257
   -------------------------

  ==> Iterations <==

                           Total Energy        Delta E     RMS |[F,P]|

   @DF-RHF iter SAD:  -537.85397237747463   -5.37854e+02   0.00000e+00 
   @DF-RHF iter   1:  -537.36124216581516    4.92730e-01   2.48436e-03 DIIS
   @DF-RHF iter   2:  -537.60139914307501   -2.40157e-01   1.09558e-03 DIIS
   @DF-RHF iter   3:  -537.64096723610214   -3.95681e-02   2.95443e-04 DIIS
   @DF-RHF iter   4:  -537.64509812019719   -4.13088e-03   1.06769e-04 DIIS
   @DF-RHF iter   5:  -537.64556480216709   -4.66682e-04   2.62637e-05 DIIS
   @DF-RHF iter   6:  -537.64560733402652   -4.25319e-05   8.82605e-06 DIIS
   @DF-RHF iter   7:  -537.64561338875978   -6.05473e-06   3.69611e-06 DIIS
   @DF-RHF iter   8:  -537.64561452608928   -1.13733e-06   1.31289e-06 DIIS
   @DF-RHF iter   9:  -537.64561475077664   -2.24687e-07   5.94778e-07 DIIS
   @DF-RHF iter  10:  -537.64561479653253   -4.57559e-08   2.73224e-07 DIIS
   @DF-RHF iter  11:  -537.64561481034764   -1.38151e-08   1.10050e-07 DIIS
   @DF-RHF iter  12:  -537.64561481258124   -2.23361e-09   4.28810e-08 DIIS
   @DF-RHF iter  13:  -537.64561481283170   -2.50452e-10   1.77253e-08 DIIS
   @DF-RHF iter  14:  -537.64561481287387   -4.21778e-11   4.96027e-09 DIIS
   @DF-RHF iter  15:  -537.64561481287569   -1.81899e-12   1.85974e-09 DIIS
   @DF-RHF iter  16:  -537.64561481287785   -2.16005e-12   6.91966e-10 DIIS
   @DF-RHF iter  17:  -537.64561481287546    2.38742e-12   2.65988e-10 DIIS
   @DF-RHF iter  18:  -537.64561481287637   -9.09495e-13   1.08536e-10 DIIS
   @DF-RHF iter  19:  -537.64561481287706   -6.82121e-13   5.52264e-11 DIIS
  Energy and wave function converged.


  ==> Post-Iterations <==

    Orbital Energies [Eh]
    ---------------------

    Doubly Occupied:                                                      

       1A    -20.691767     2A    -11.491432     3A    -11.464942  
       4A    -11.436688     5A    -11.429046     6A    -11.393842  
       7A    -11.388835     8A    -11.383170     9A    -11.379549  
      10A    -11.377615    11A    -11.375686    12A    -11.362628  
      13A    -11.359346    14A     -1.505809    15A     -1.395393  
      16A     -1.271629    17A     -1.224816    18A     -1.162477  
      19A     -1.141135    20A     -1.130016    21A     -1.096863  
      22A     -0.975130    23A     -0.964641    24A     -0.959641  
      25A     -0.915402    26A     -0.873052    27A     -0.851243  
      28A     -0.837856    29A     -0.790450    30A     -0.777505  
      31A     -0.758814    32A     -0.748228    33A     -0.735635  
      34A     -0.710829    35A     -0.698316    36A     -0.689097  
      37A     -0.677918    38A     -0.664859    39A     -0.653524  
      40A     -0.637253    41A     -0.627620    42A     -0.623448  
      43A     -0.612307    44A     -0.598155    45A     -0.575993  
      46A     -0.462996    47A     -0.431965  

    Virtual:                                                              

      48A     -0.127690    49A     -0.012034    50A      0.001757  
      51A      0.013415    52A      0.027377    53A      0.051565  
      54A      0.072298    55A      0.077542    56A      0.089660  
      57A      0.093343    58A      0.109317    59A      0.115834  
      60A      0.121424    61A      0.133925    62A      0.144498  
      63A      0.147774    64A      0.162932    65A      0.175968  
      66A      0.191439    67A      0.215646    68A      0.219925  
      69A      0.233399    70A      0.255637    71A      0.262273  
      72A      0.304555    73A      0.310590    74A      0.333570  
      75A      0.342899    76A      0.357976    77A      0.370729  
      78A      0.375168    79A      0.415412    80A      0.440133  
      81A      0.465762    82A      0.481708    83A      0.500203  
      84A      0.520627    85A      0.520972    86A      0.525321  
      87A      0.534421    88A      0.542916    89A      0.562406  
      90A      0.577643    91A      0.579620    92A      0.588774  
      93A      0.596269    94A      0.601430    95A      0.608338  
      96A      0.616355    97A      0.624250    98A      0.642368  
      99A      0.657856   100A      0.662710   101A      0.678778  
     102A      0.688445   103A      0.695123   104A      0.696766  
     105A      0.706648   106A      0.711370   107A      0.716672  
     108A      0.723293   109A      0.739533   110A      0.747500  
     111A      0.753299   112A      0.755604   113A      0.761189  
     114A      0.767851   115A      0.772367   116A      0.784634  
     117A      0.791315   118A      0.802330   119A      0.804740  
     120A      0.825190   121A      0.829427   122A      0.843979  
     123A      0.862438   124A      0.883100   125A      0.903982  
     126A      0.965271   127A      0.990596   128A      1.008587  
     129A      1.016911   130A      1.029634   131A      1.042544  
     132A      1.049569   133A      1.088802   134A      1.100686  
     135A      1.113040   136A      1.130819   137A      1.145022  
     138A      1.168295   139A      1.174979   140A      1.181903  
     141A      1.185950   142A      1.201392   143A      1.234373  
     144A      1.239563   145A      1.266828   146A      1.271930  
     147A      1.284532   148A      1.300922   149A      1.308199  
     150A      1.330012   151A      1.349029   152A      1.376315  
     153A      1.392778   154A      1.423851   155A      1.443211  
     156A      1.475534   157A      1.485174   158A      1.506295  
     159A      1.510482   160A      1.517675   161A      1.552620  
     162A      1.562062   163A      1.584353   164A      1.606672  
     165A      1.626447   166A      1.636276   167A      1.650787  
     168A      1.662310   169A      1.674316   170A      1.683246  
     171A      1.696358   172A      1.702837   173A      1.735639  
     174A      1.742321   175A      1.754322   176A      1.763033  
     177A      1.772022   178A      1.775996   179A      1.782751  
     180A      1.791070   181A      1.801190   182A      1.809264  
     183A      1.812088   184A      1.822114   185A      1.829814  
     186A      1.838106   187A      1.848925   188A      1.865306  
     189A      1.870604   190A      1.883606   191A      1.891436  
     192A      1.901006   193A      1.913705   194A      1.927896  
     195A      1.937093   196A      1.942354   197A      1.950922  
     198A      1.961935   199A      1.971260   200A      1.997761  
     201A      2.016214   202A      2.030640   203A      2.058860  
     204A      2.061401   205A      2.073606   206A      2.090120  
     207A      2.097456   208A      2.115662   209A      2.127947  
     210A      2.137424   211A      2.148175   212A      2.176454  
     213A      2.197790   214A      2.209323   215A      2.234071  
     216A      2.238464   217A      2.263384   218A      2.276774  
     219A      2.288006   220A      2.299761   221A      2.315446  
     222A      2.330362   223A      2.363812   224A      2.370212  
     225A      2.384364   226A      2.423606   227A      2.440762  
     228A      2.442042   229A      2.500679   230A      2.515932  
     231A      2.518114   232A      2.558182   233A      2.599016  
     234A      2.609173   235A      2.616754   236A      2.630400  
     237A      2.636974   238A      2.647656   239A      2.694931  
     240A      2.713181   241A      2.755666   242A      2.778622  
     243A      2.811193   244A      2.833871   245A      2.850899  
     246A      2.861574   247A      2.908377   248A      2.928677  
     249A      2.986582   250A      3.066152   251A      3.113674  
     252A      3.149196   253A      3.233189   254A      3.441846  
     255A      3.549417   256A      3.805349   257A      4.089331  

    Final Occupation by Irrep:
              A 
    DOCC [    47 ]

  @DF-RHF Final Energy:  -537.64561481287706

   => Energetics <=

    Nuclear Repulsion Energy =            774.7858487122487077
    One-Electron Energy =               -2252.2338037949216414
    Two-Electron Energy =                 939.8023402697958772
    Total Energy =                       -537.6456148128770565

Computation Completed


Properties will be evaluated at   0.000000,   0.000000,   0.000000 [a0]

Properties computed using the SCF density matrix

  Nuclear Dipole Moment: [e a0]
     X:   -12.7384      Y:    -0.4693      Z:     6.9020

  Electronic Dipole Moment: [e a0]
     X:     8.8370      Y:     1.1294      Z:    -6.8920

  Dipole Moment: [e a0]
     X:    -3.9014      Y:     0.6602      Z:     0.0100     Total:     3.9569

  Dipole Moment: [D]
     X:    -9.9164      Y:     1.6780      Z:     0.0254     Total:    10.0574


*** tstop() called on skystd39.palmetto.clemson.edu at Thu Oct 14 16:29:10 2021
Module time:
	user time   =      13.27 seconds =       0.22 minutes
	system time =       0.87 seconds =       0.01 minutes
	total time  =         14 seconds =       0.23 minutes
Total time:
	user time   =      13.27 seconds =       0.22 minutes
	system time =       0.87 seconds =       0.01 minutes
	total time  =         14 seconds =       0.23 minutes

*** tstart() called on skystd39.palmetto.clemson.edu
*** at Thu Oct 14 16:29:10 2021


  //>>>>>>>>>>>>>>>>>>>>>>>>>>>>>>>>>>>//
  //               DFMP2               //
  //<<<<<<<<<<<<<<<<<<<<<<<<<<<<<<<<<<<//

   => Loading Basis Set <=

    Name: (CC-PVDZ AUX)
    Role: RIFIT
    Keyword: DF_BASIS_MP2
    atoms 1-12         entry C          line   159 file /home/maxbuskirk/.conda/envs/psifour/share/psi4/basis/cc-pvdz-ri.gbs 
    atoms 13-21, 23-28 entry H          line    19 file /home/maxbuskirk/.conda/envs/psifour/share/psi4/basis/cc-pvdz-ri.gbs 
    atoms 22           entry O          line   235 file /home/maxbuskirk/.conda/envs/psifour/share/psi4/basis/cc-pvdz-ri.gbs 

	 --------------------------------------------------------
	                          DF-MP2                         
	      2nd-Order Density-Fitted Moller-Plesset Theory     
	              RMP2 Wavefunction,   1 Threads             
	                                                         
	        Rob Parrish, Justin Turney, Andy Simmonett,      
	           Ed Hohenstein, and C. David Sherrill          
	 --------------------------------------------------------

   => Auxiliary Basis Set <=

  Basis Set: (CC-PVDZ AUX)
    Blend: CC-PVDZ-RI
    Number of shells: 324
    Number of basis functions: 938
    Number of Cartesian functions: 1083
    Spherical Harmonics?: true
    Max angular momentum: 3

	 --------------------------------------------------------
	                 NBF =   257, NAUX =   938
	 --------------------------------------------------------
	   CLASS    FOCC     OCC    AOCC    AVIR     VIR    FVIR
	   PAIRS       0      47      47     210     210       0
	 --------------------------------------------------------

  DFHelper Memory: AOs need 0.568 GiB; user supplied 22.352 GiB. Using in-core AOs.


         ------------------------------------------------------------
                                     CPHF                           
                                  Rob Parrish                       
         ------------------------------------------------------------

  ==> Geometry <==

    Molecular point group: c1
    Full point group: C1

    Geometry (in Angstrom), charge = 1, multiplicity = 1:

       Center              X                  Y                   Z               Mass       
    ------------   -----------------  -----------------  -----------------  -----------------
         C            0.006894999362    -0.014050997222    -1.690630330265    12.000000000000
         C            0.006894999362    -0.014050997222    -0.282471330265    12.000000000000
         C            1.245284999362    -0.014050997222     0.393309669735    12.000000000000
         C            2.453065999362    -0.011379997222    -0.320115330265    12.000000000000
         C            2.440283999362    -0.007066997222    -1.725535330265    12.000000000000
         C            1.213853999362    -0.007645997222    -2.408974330265    12.000000000000
         C           -1.265880000638    -0.059995997222     0.496734669735    12.000000000000
         C           -1.621552000638    -1.349816997222     1.260011669735    12.000000000000
         C           -1.730484000638    -0.913631997222     2.734490669735    12.000000000000
         C           -2.291989000638     0.521984002778     2.677334669735    12.000000000000
         C           -1.708030000638     1.103028002778     1.389743669735    12.000000000000
         C           -2.440172000638     0.806994002778     0.095258669735    12.000000000000
         H           -1.098314000638     2.010715002778     1.426800669735     1.007825032230
         H           -2.004074000638     1.115508002778     3.559584669735     1.007825032230
         H           -3.396010000638     0.509077002778     2.637364669735     1.007825032230
         H           -0.715827000638    -0.880582997222     3.169736669735     1.007825032230
         H           -2.336797000638    -1.598903997222     3.350843669735     1.007825032230
         H           -0.852551000638    -2.123300997222     1.106566669735     1.007825032230
         H           -2.581680000638    -1.761266997222     0.899451669735     1.007825032230
         H           -0.949272000638    -0.022300997222    -2.223764330265     1.007825032230
         H            1.196624999362    -0.005328997222    -3.503258330265     1.007825032230
         O            3.627095999362     0.001294002778    -2.429671330265    15.994914619570
         H            3.405356999362    -0.005788997222     0.219196669735     1.007825032230
         H            1.255022999362    -0.004229997222     1.488812669735     1.007825032230
         H           -2.290290000638     1.506076002778    -0.732367330265     1.007825032230
         H           -3.443866000638     0.374491002778     0.166833669735     1.007825032230
         H           -3.238004000638     0.382044002778    -0.832406330265     1.007825032230
         H            3.442997999362     0.003232002778    -3.358602330265     1.007825032230

  Nuclear repulsion =  774.785848712248708
  Reference energy  = -537.645614812877056

  ==> Basis Set <==

  Basis Set: CC-PVDZ
    Blend: CC-PVDZ
    Number of shells: 123
    Number of basis functions: 257
    Number of Cartesian functions: 270
    Spherical Harmonics?: true
    Max angular momentum: 2

  ==> CGRSolver (by Rob Parrish) <==

   Number of roots    =         1
   Preconditioning    =    JACOBI
   Convergence cutoff =     1E-06
   Maximum iterations =       100

  ==> CPHFRHamiltonian (by Rob Parrish) <== 

  ==> MemDFJK: Density-Fitted J/K Matrices <==

    J tasked:                   Yes
    K tasked:                   Yes
    wK tasked:                   No
    OpenMP threads:               1
    Memory [MiB]:             22888
    Algorithm:                 Core
    Schwarz Cutoff:           1E-12
    Mask sparsity (%):      11.6580
    Fitting Condition:        1E-10

   => Auxiliary Basis Set <=

  Basis Set: (CC-PVDZ AUX)
    Blend: CC-PVDZ-JKFIT
    Number of shells: 447
    Number of basis functions: 1255
    Number of Cartesian functions: 1428
    Spherical Harmonics?: true
    Max angular momentum: 3

  ==> CPHF Iterations <==

  => Iterations <=

             Iter  Converged  Remaining    Residual
  CGR           1          0          1   1.091E-01
  CGR           2          0          1   2.414E-02
  CGR           3          0          1   1.282E-02
  CGR           4          0          1   5.018E-03
  CGR           5          0          1   2.400E-03
  CGR           6          0          1   1.093E-03
  CGR           7          0          1   3.692E-04
  CGR           8          0          1   1.082E-04
  CGR           9          0          1   4.420E-05
  CGR          10          0          1   1.305E-05
  CGR          11          0          1   5.324E-06
  CGR          12          0          1   1.699E-06
  CGR          13          1          0   5.657E-07

    CGRSolver converged.

  ==> DFCorrGrad: Density-Fitted Correlated Gradients <==

    OpenMP threads:              1
    Integrals threads:           1
    Memory [GiB]:           22.352
    Schwarz Cutoff:          0E+00
    Fitting Condition:       1E-10

   => Auxiliary Basis Set <=

  Basis Set: (CC-PVDZ AUX)
    Blend: CC-PVDZ-JKFIT
    Number of shells: 447
    Number of basis functions: 1255
    Number of Cartesian functions: 1428
    Spherical Harmonics?: true
    Max angular momentum: 3

	-----------------------------------------------------------
	 ==================> DF-MP2 Energies <==================== 
	-----------------------------------------------------------
	 Reference Energy          =    -537.6456148128770565 [Eh]
	 Singles Energy            =      -0.0000000000000000 [Eh]
	 Same-Spin Energy          =      -0.4857177470026283 [Eh]
	 Opposite-Spin Energy      =      -1.3599380981058247 [Eh]
	 Correlation Energy        =      -1.8456558451084530 [Eh]
	 Total Energy              =    -539.4912706579855239 [Eh]
	-----------------------------------------------------------
	 ================> DF-SCS-MP2 Energies <================== 
	-----------------------------------------------------------
	 SCS Same-Spin Scale       =       0.3333333333333333 [-]
	 SCS Opposite-Spin Scale   =       1.2000000000000000 [-]
	 SCS Same-Spin Energy      =      -0.1619059156675428 [Eh]
	 SCS Opposite-Spin Energy  =      -1.6319257177269895 [Eh]
	 SCS Correlation Energy    =      -1.7938316333945323 [Eh]
	 SCS Total Energy          =    -539.4394464462716314 [Eh]
	-----------------------------------------------------------


  -Total Gradient:
     Atom            X                  Y                   Z
    ------   -----------------  -----------------  -----------------
       1       -0.001076597568    -0.000445965076    -0.001922030033
       2        0.001465858057    -0.005305925113     0.007210866748
       3        0.000638941329    -0.000765382579     0.001257878884
       4       -0.001929075131     0.000005910121    -0.005825022423
       5       -0.013522352902     0.000087422085     0.022070331426
       6        0.009886529807     0.000278803664    -0.002556474838
       7       -0.008496627106    -0.000869737300    -0.006497857804
       8        0.006062562974     0.000717283629    -0.003386835021
       9       -0.002176549348     0.000128398835     0.000424721886
      10        0.006024783485     0.002302715456    -0.004574607786
      11       -0.013088840063     0.017737387760    -0.030858741891
      12       -0.016994759195     0.010422225940     0.079484791034
      13        0.008087894338    -0.006586820555     0.007764755325
      14        0.000397795241    -0.001436865801     0.002811495757
      15       -0.001205842975    -0.001802679632    -0.001317088661
      16        0.000858502974     0.000453861240     0.000153869977
      17       -0.000542586913    -0.001902652311     0.001000894396
      18        0.001115408903    -0.002468303613     0.002304382517
      19        0.000520985772     0.001977970338     0.000070074937
      20       -0.000637682188     0.000485236524     0.003310212714
      21        0.000212141354    -0.000017710229     0.000148067392
      22        0.005300114204     0.000073377020    -0.043034798126
      23        0.000010117393     0.000028689054     0.002222262186
      24       -0.002396799040     0.000380660752     0.000099489890
      25       -0.005667144362    -0.018777951216    -0.000529463826
      26        0.045986418768     0.006106791911    -0.030304906810
      27       -0.026087306850    -0.000872629104    -0.020882818596
      28        0.007254109040     0.000065888196     0.021356550752


*** tstop() called on skystd39.palmetto.clemson.edu at Thu Oct 14 16:30:08 2021
Module time:
	user time   =      54.60 seconds =       0.91 minutes
	system time =       3.17 seconds =       0.05 minutes
	total time  =         58 seconds =       0.97 minutes
Total time:
	user time   =      67.87 seconds =       1.13 minutes
	system time =       4.04 seconds =       0.07 minutes
	total time  =         72 seconds =       1.20 minutes

			-----------------------------------------
			 OPTKING 2.0: for geometry optimizations 
			  - R.A. King,  Bethel University        
			-----------------------------------------

	Internal coordinates to be generated automatically.
	Detected frag 1 with atoms:  1 2 3 4 5 6 7 8 9 10 11 12 13 14 15 16 17 18 19 20
	 21 22 23 24 25 26 27 28
	---Fragment 1 Bond Connectivity---
	 1 : 2 6 20
	 2 : 1 3 7
	 3 : 2 4 24
	 4 : 3 5 23
	 5 : 4 6 22
	 6 : 1 5 21
	 7 : 2 8 11 12
	 8 : 7 9 18 19
	 9 : 8 10 16 17
	 10 : 9 11 14 15
	 11 : 7 10 12 13
	 12 : 7 11 25 26 27
	 13 : 11
	 14 : 10
	 15 : 10
	 16 : 9
	 17 : 9
	 18 : 8
	 19 : 8
	 20 : 1
	 21 : 6
	 22 : 5 28
	 23 : 4
	 24 : 3
	 25 : 12
	 26 : 12
	 27 : 12
	 28 : 22

	---Fragment 1 Geometry and Gradient---
	 C           0.0130296604       -0.0265525365       -3.1948283036
	 C           0.0130296604       -0.0265525365       -0.5337934525
	 C           2.3532475969       -0.0265525365        0.7432475583
	 C           4.6356229065       -0.0215050781       -0.6049303028
	 C           4.6114684271       -0.0133546893       -3.2607891940
	 C           2.2938516151       -0.0144488407       -4.5523017275
	 C          -2.3921665089       -0.1133760034        0.9386924828
	 C          -3.0642891794       -2.5507844442        2.3810769707
	 C          -3.2701408257       -1.7265142542        5.1674384584
	 C          -4.3312314938        0.9864068071        5.0594292720
	 C          -3.2277089153        2.0844208340        2.6262349204
	 C          -4.6112567802        1.5249976501        0.1800127969
	 H          -2.0755126610        3.7997006716        2.6962625014
	 H          -3.7871509964        2.1080046160        6.7266401462
	 H          -6.4175288205        0.9620161120        4.9838969188
	 H          -1.3527169844       -1.6640606955        5.9899341956
	 H          -4.4159063420       -3.0214906556        6.3321768250
	 H          -1.6110878992       -4.0124573667        2.0911079454
	 H          -4.8786681448       -3.3283122586        1.6997173189
	 H          -1.7938640998       -0.0421427771       -4.2023055518
	 H           2.2612935237       -0.0100703453       -6.6201987909
	 O           6.8542180695        0.0024453109       -4.5914133891
	 H           6.4351920882       -0.0109396193        0.4142216734
	 H           2.3716497499       -0.0079935363        2.8134481979
	 H          -4.3280208491        2.8460711694       -1.3839736774
	 H          -6.5079635540        0.7076854317        0.3152699443
	 H          -6.1189407543        0.7219585331       -1.5730199893
	 H           6.5063232693        0.0061076001       -6.3468385685
	            -0.0010765976       -0.0004459651       -0.0019220300
	             0.0014658581       -0.0053059251        0.0072108667
	             0.0006389413       -0.0007653826        0.0012578789
	            -0.0019290751        0.0000059101       -0.0058250224
	            -0.0135223529        0.0000874221        0.0220703314
	             0.0098865298        0.0002788037       -0.0025564748
	            -0.0084966271       -0.0008697373       -0.0064978578
	             0.0060625630        0.0007172836       -0.0033868350
	            -0.0021765493        0.0001283988        0.0004247219
	             0.0060247835        0.0023027155       -0.0045746078
	            -0.0130888401        0.0177373878       -0.0308587419
	            -0.0169947592        0.0104222259        0.0794847910
	             0.0080878943       -0.0065868206        0.0077647553
	             0.0003977952       -0.0014368658        0.0028114958
	            -0.0012058430       -0.0018026796       -0.0013170887
	             0.0008585030        0.0004538612        0.0001538700
	            -0.0005425869       -0.0019026523        0.0010008944
	             0.0011154089       -0.0024683036        0.0023043825
	             0.0005209858        0.0019779703        0.0000700749
	            -0.0006376822        0.0004852365        0.0033102127
	             0.0002121414       -0.0000177102        0.0001480674
	             0.0053001142        0.0000733770       -0.0430347981
	             0.0000101174        0.0000286891        0.0022222622
	            -0.0023967990        0.0003806608        0.0000994899
	            -0.0056671444       -0.0187779512       -0.0005294638
	             0.0459864188        0.0061067919       -0.0303049068
	            -0.0260873069       -0.0008726291       -0.0208828186
	             0.0072541090        0.0000658882        0.0213565508

	Previous optimization step data not found.  Starting new optimization.

	---Fragment 1 Intrafragment Coordinates---
	 - Coordinate -           - BOHR/RAD -       - ANG/DEG -
	 R(1,2)           =         2.661035	       1.408159
	 R(1,6)           =         2.654247	       1.404567
	 R(1,20)          =         2.068845	       1.094785
	 R(2,3)           =         2.665981	       1.410776
	 R(2,7)           =         2.821475	       1.493060
	 R(3,4)           =         2.650820	       1.402753
	 R(3,24)          =         2.070366	       1.095590
	 R(4,5)           =         2.655981	       1.405485
	 R(4,23)          =         2.068147	       1.094416
	 R(5,6)           =         2.653178	       1.404001
	 R(5,22)          =         2.607822	       1.380000
	 R(6,21)          =         2.068158	       1.094422
	 R(7,8)           =         2.910873	       1.540368
	 R(7,11)          =         2.894174	       1.531531
	 R(7,12)          =         2.860808	       1.513875
	 R(8,9)           =         2.913006	       1.541497
	 R(8,18)          =         2.081433	       1.101447
	 R(8,19)          =         2.088246	       1.105052
	 R(9,10)          =         2.915051	       1.542578
	 R(9,16)          =         2.087322	       1.104563
	 R(9,17)          =         2.084792	       1.103224
	 R(10,11)         =         2.888569	       1.528565
	 R(10,14)         =         2.081729	       1.101604
	 R(10,15)         =         2.087807	       1.104820
	 R(11,12)         =         2.865512	       1.516364
	 R(11,13)         =         2.067521	       1.094085
	 R(12,25)         =         2.066764	       1.093684
	 R(12,26)         =         2.069732	       1.095255
	 R(12,27)         =         2.447674	       1.295253
	 R(22,28)         =         1.789570	       0.947000
	 B(1,2,3)         =         2.070327	     118.620997
	 B(1,2,7)         =         2.119856	     121.458788
	 B(1,6,5)         =         2.096330	     120.110874
	 B(1,6,21)        =         2.091916	     119.857977
	 B(2,1,6)         =         2.107650	     120.759421
	 B(2,1,20)        =         2.079420	     119.142001
	 B(2,3,4)         =         2.108515	     120.808990
	 B(2,3,24)        =         2.079193	     119.129007
	 B(2,7,8)         =         2.072823	     118.764025
	 B(2,7,11)        =         2.125907	     121.805526
	 B(2,7,12)        =         2.100429	     120.345701
	 B(3,2,7)         =         2.092440	     119.888000
	 B(3,4,5)         =         2.095251	     120.049043
	 B(3,4,23)        =         2.092754	     119.905975
	 B(4,3,24)        =         2.095410	     120.058136
	 B(4,5,6)         =         2.088286	     119.649965
	 B(4,5,22)        =         2.097189	     120.160057
	 B(5,4,23)        =         2.095157	     120.043679
	 B(5,6,21)        =         2.094936	     120.031012
	 B(5,22,28)       =         1.910633	     109.471236
	 B(6,1,20)        =         2.096111	     120.098304
	 B(6,5,22)        =         2.097707	     120.189753
	 B(7,8,9)         =         1.826941	     104.676012
	 B(7,8,18)        =         1.936687	     110.963967
	 B(7,8,19)        =         1.929130	     110.530980
	 B(7,11,10)       =         1.888927	     108.227565
	 B(7,11,12)       =         1.039531	      59.560711
	 B(7,11,13)       =         2.081594	     119.266540
	 B(7,12,11)       =         1.059727	      60.717866
	 B(7,12,25)       =         2.049296	     117.416011
	 B(7,12,26)       =         2.057098	     117.863016
	 B(7,12,27)       =         2.071269	     118.674982
	 B(8,7,11)        =         1.854884	     106.277040
	 B(8,7,12)        =         2.017337	     115.584897
	 B(8,9,10)        =         1.827220	     104.692002
	 B(8,9,16)        =         1.897016	     108.690991
	 B(8,9,17)        =         1.979552	     113.419998
	 B(9,8,18)        =         1.962000	     112.414302
	 B(9,8,19)        =         1.934840	     110.858171
	 B(9,10,11)       =         1.819261	     104.235991
	 B(9,10,14)       =         1.956933	     112.123993
	 B(9,10,15)       =         1.932865	     110.744982
	 B(10,9,16)       =         1.897719	     108.731301
	 B(10,9,17)       =         1.980931	     113.498999
	 B(10,11,12)      =         2.049278	     117.414996
	 B(10,11,13)      =         2.094085	     119.982231
	 B(11,7,12)       =         1.042335	      59.721423
	 B(11,10,14)      =         1.949773	     111.713789
	 B(11,10,15)      =         1.934482	     110.837637
	 B(11,12,25)      =         2.043223	     117.068036
	 B(11,12,26)      =         2.053041	     117.630561
	 B(11,12,27)      =         2.908091	     166.621351
	 B(12,11,13)      =         2.048737	     117.384004
	 B(14,10,15)      =         1.871758	     107.243861
	 B(16,9,17)       =         1.878939	     107.655246
	 B(18,8,19)       =         1.875159	     107.438672
	 B(25,12,26)      =         2.012468	     115.305919
	 B(25,12,27)      =         1.320336	      75.649663
	 B(26,12,27)      =         0.866858	      49.667332
	 D(1,2,3,4)       =         0.002217	       0.127023
	 D(1,2,3,24)      =         3.131330	     179.412021
	 D(1,2,7,8)       =         1.903733	     109.075866
	 D(1,2,7,11)      =        -2.009659	    -115.144974
	 D(1,2,7,12)      =        -0.769268	     -44.075804
	 D(1,6,5,4)       =        -0.001267	      -0.072568
	 D(1,6,5,22)      =        -3.139855	    -179.900465
	 D(2,1,6,5)       =         0.004882	       0.279712
	 D(2,1,6,21)      =        -3.139055	    -179.854616
	 D(2,3,4,5)       =         0.001308	       0.074953
	 D(2,3,4,23)      =         3.135659	     179.660022
	 D(2,7,8,9)       =         2.100957	     120.375986
	 D(2,7,8,18)      =        -0.019556	      -1.120483
	 D(2,7,8,19)      =        -2.098069	    -120.210485
	 D(2,7,11,10)     =        -2.431542	    -139.317107
	 D(2,7,11,12)     =         1.903192	     109.044880
	 D(2,7,11,13)     =         0.046268	       2.650975
	 D(2,7,12,11)     =        -1.944837	    -111.430950
	 D(2,7,12,25)     =        -0.072649	      -4.162498
	 D(2,7,12,26)     =         2.457625	     140.811515
	 D(2,7,12,27)     =         1.463589	      83.857495
	 D(3,2,1,6)       =        -0.005307	      -0.304050
	 D(3,2,1,20)      =         3.132965	     179.505653
	 D(3,2,7,8)       =        -1.201327	     -68.830973
	 D(3,2,7,11)      =         1.168466	      66.948187
	 D(3,2,7,12)      =         2.408857	     138.017357
	 D(3,4,5,6)       =        -0.001797	      -0.102948
	 D(3,4,5,22)      =         3.136793	     179.725001
	 D(4,3,2,7)       =         3.108309	     178.093004
	 D(4,5,6,21)      =        -3.140511	    -179.938005
	 D(4,5,22,28)     =         3.141593	     180.000000
	 D(5,4,3,24)      =        -3.127690	    -179.203428
	 D(5,6,1,20)      =        -3.133358	    -179.528176
	 D(6,1,2,7)       =        -3.110817	    -178.236668
	 D(6,5,4,23)      =        -3.136137	    -179.687441
	 D(6,5,22,28)     =        -0.003019	      -0.172989
	 D(7,2,1,20)      =         0.027455	       1.573035
	 D(7,2,3,24)      =        -0.045763	      -2.621999
	 D(7,8,9,10)      =         0.589415	      33.771009
	 D(7,8,9,16)      =        -1.436057	     -82.280006
	 D(7,8,9,17)      =         2.757969	     158.020011
	 D(7,11,10,9)     =         0.342649	      19.632339
	 D(7,11,10,14)    =         2.459421	     140.914464
	 D(7,11,10,15)    =        -1.737453	     -99.548724
	 D(7,11,12,25)    =        -1.882074	    -107.834882
	 D(7,11,12,26)    =         1.887313	     108.135088
	 D(7,11,12,27)    =         1.590634	      91.136609
	 D(7,12,11,10)    =        -1.674893	     -95.964286
	 D(7,12,11,13)    =         1.911554	     109.524001
	 D(8,7,11,10)     =         0.019582	       1.121989
	 D(8,7,11,12)     =        -1.928869	    -110.516024
	 D(8,7,11,13)     =         2.497393	     143.090070
	 D(8,7,12,11)     =         1.651178	      94.605518
	 D(8,7,12,25)     =        -2.759820	    -158.126030
	 D(8,7,12,26)     =        -0.229546	     -13.152017
	 D(8,7,12,27)     =        -1.223581	     -70.106038
	 D(8,9,10,11)     =        -0.573603	     -32.865004
	 D(8,9,10,14)     =        -2.685608	    -153.873999
	 D(8,9,10,15)     =         1.507597	      86.378974
	 D(9,8,7,11)      =        -0.375138	     -21.493819
	 D(9,8,7,12)      =        -1.487483	     -85.226516
	 D(9,10,11,12)    =         1.468886	      84.160990
	 D(9,10,11,13)    =        -2.129574	    -122.015576
	 D(10,9,8,18)     =         2.693184	     154.308062
	 D(10,9,8,19)     =        -1.490900	     -85.422298
	 D(10,11,7,12)    =         1.948451	     111.638013
	 D(10,11,12,25)   =         2.726219	     156.200832
	 D(10,11,12,26)   =         0.212421	      12.170802
	 D(10,11,12,27)   =        -0.084259	      -4.827677
	 D(11,7,8,18)     =        -2.495651	    -142.990288
	 D(11,7,8,19)     =         1.709021	      97.919710
	 D(11,7,12,25)    =         1.872188	     107.268451
	 D(11,7,12,26)    =        -1.880724	    -107.757535
	 D(11,7,12,27)    =        -2.874759	    -164.711556
	 D(11,10,9,16)    =         1.451382	      83.158064
	 D(11,10,9,17)    =        -2.741277	    -157.063604
	 D(12,7,8,18)     =         2.675189	     153.277015
	 D(12,7,8,19)     =         0.596676	      34.187013
	 D(12,7,11,13)    =        -1.856924	    -106.393905
	 D(12,11,10,14)   =        -2.697527	    -154.556885
	 D(12,11,10,15)   =        -0.611216	     -35.020073
	 D(13,11,10,14)   =        -0.012801	      -0.733451
	 D(13,11,10,15)   =         2.073510	     118.803361
	 D(13,11,12,25)   =         0.029481	       1.689118
	 D(13,11,12,26)   =        -2.484318	    -142.340911
	 D(13,11,12,27)   =        -2.780997	    -159.339390
	 D(14,10,9,16)    =        -0.660623	     -37.850931
	 D(14,10,9,17)    =         1.429903	      81.927401
	 D(15,10,9,16)    =        -2.750603	    -157.597958
	 D(15,10,9,17)    =        -0.660077	     -37.819626
	 D(16,9,8,18)     =         0.667711	      38.257048
	 D(16,9,8,19)     =         2.766813	     158.526687
	 D(17,9,8,18)     =        -1.421447	     -81.442936
	 D(17,9,8,19)     =         0.677654	      38.826704
	 D(20,1,6,21)     =         0.005890	       0.337495
	 D(21,6,5,22)     =         0.004086	       0.234098
	 D(22,5,4,23)     =         0.002452	       0.140507
	 D(23,4,3,24)     =         0.006661	       0.381641

	Current energy   :      -539.4912706580

	Generating empirical Hessian (Schlegel '84) for each fragment.
	Taking PRFO optimization step.
	Maximizing along 1 lowest eigenvalue of Hessian.

 RFO min eigenvalues
 -0.029441 -0.000000 -0.000000 -0.000000 -0.000000 -0.000000 -0.000000 -0.000000
 -0.000000 -0.000000 -0.000000 -0.000000 -0.000000 -0.000000 -0.000000 -0.000000
 -0.000000 -0.000000 -0.000000 -0.000000 -0.000000 -0.000000 -0.000000 -0.000000
 -0.000000 -0.000000 -0.000000 -0.000000 -0.000000 -0.000000 -0.000000 -0.000000
 -0.000000 -0.000000 -0.000000 -0.000000 -0.000000 -0.000000 -0.000000 -0.000000
 -0.000000 -0.000000 -0.000000 -0.000000 -0.000000 -0.000000 -0.000000 -0.000000
 -0.000000 -0.000000 -0.000000 -0.000000 -0.000000 -0.000000 -0.000000 -0.000000
 -0.000000  0.000000  0.000000  0.000000  0.000000  0.000000  0.000000  0.000000
  0.000000  0.000000  0.000000  0.000000  0.000000  0.000000  0.000000  0.000000
  0.000000  0.000000  0.000000  0.000000  0.000000  0.000000  0.000000  0.000000
  0.000000  0.000000  0.000000  0.000000  0.000000  0.000000  0.000000  0.000000
  0.000000  0.000000  0.000000  0.000000  0.000000  0.000000  0.000000  0.000000
  0.000000  0.000000  0.000000  0.000000  0.000000  0.000000  0.000000  0.000000
  0.000000  0.000000  0.000000  0.000000  0.000000  0.003413  0.005493  0.005871
  0.007557  0.007592  0.012346  0.012469  0.015094  0.015744  0.017009  0.017273
  0.017351  0.017505  0.017565  0.017609  0.017656  0.020714  0.027713  0.028995
  0.035247  0.037904  0.043525  0.051018  0.053980  0.058874  0.061218  0.068971
  0.069868  0.070219  0.074609  0.080350  0.084088  0.091982  0.097135  0.100150
  0.105801  0.110777  0.159990  0.159997  0.159999  0.160000  0.160328  0.168132
  0.192659  0.202292  0.205382  0.220002  0.229688  0.239999  0.249831  0.251430
  0.264041  0.266848  0.276432  0.290675  0.301831  0.331172  0.331298  0.331550
  0.331826  0.333288  0.335058  0.335234  0.341745  0.342654  0.343066  0.343072
  0.343447  0.343751  0.349156  0.407340  0.409180  0.442348  0.445147  0.448777
  0.450635  0.492035  0.584551

 RFO max eigenvalues
 -0.000000  0.000000
	Change in coordinate exceeds step limit of    0.50000.
	Scaling displacements by    0.92538
	|RFO target step|  :        0.5000000000
	RFO gradient       :       -0.0544887414
	RFO hessian        :        0.0729910583
	Projected Delta(E) :       -0.0144963908

	Back-transformation to cartesian coordinates...
	Could not converge backtransformation.
	Using first guess instead.

	--- Internal Coordinate Step in ANG or DEG, aJ/ANG or AJ/DEG ---
	 ---------------------------------------------------------------------------
	   Coordinate                Previous        Force       Change         New 
	   ----------                --------       ------       ------       ------
	    1 R(1,2)          =      1.408159     0.000259     0.000070     1.408229
	    2 R(1,6)          =      1.404567    -0.033843    -0.004085     1.400482
	    3 R(1,20)         =      1.094785     0.008722     0.001577     1.096362
	    4 R(2,3)          =      1.410776     0.000741     0.000020     1.410796
	    5 R(2,7)          =      1.493060    -0.016608    -0.002565     1.490496
	    6 R(3,4)          =      1.402753    -0.040850    -0.005152     1.397601
	    7 R(3,24)         =      1.095590    -0.000672    -0.000016     1.095574
	    8 R(4,5)          =      1.405485    -0.005051    -0.000565     1.404920
	    9 R(4,23)         =      1.094416    -0.009096    -0.001334     1.093082
	   10 R(5,6)          =      1.404001     0.039882     0.005142     1.409143
	   11 R(5,22)         =      1.380000    -0.180088    -0.019333     1.360668
	   12 R(6,21)         =      1.094422     0.001248     0.000235     1.094657
	   13 R(7,8)          =      1.540368     0.020457     0.004223     1.544590
	   14 R(7,11)         =      1.531531     0.030239     0.001512     1.533043
	   15 R(7,12)         =      1.513875    -0.006018    -0.001852     1.512023
	   16 R(8,9)          =      1.541497     0.010700     0.001661     1.543158
	   17 R(8,18)         =      1.101447    -0.018052    -0.002894     1.098553
	   18 R(8,19)         =      1.105052     0.009985     0.001646     1.106698
	   19 R(9,10)         =      1.542578    -0.006772    -0.000786     1.541793
	   20 R(9,16)         =      1.104563    -0.007109    -0.001159     1.103404
	   21 R(9,17)         =      1.103224    -0.016801    -0.002733     1.100491
	   22 R(10,11)        =      1.528565     0.010269     0.001886     1.530451
	   23 R(10,14)        =      1.101604    -0.013029    -0.001891     1.099713
	   24 R(10,15)        =      1.104820    -0.010493    -0.001691     1.103129
	   25 R(11,12)        =      1.516364     0.086750     0.020668     1.537032
	   26 R(11,13)        =      1.094085     0.005721     0.002239     1.096324
	   27 R(12,25)        =      1.093684     0.101986     0.018743     1.112427
	   28 R(12,26)        =      1.095255     0.383381     0.069362     1.164617
	   29 R(12,27)        =      1.295253    -0.257967    -0.070186     1.225067
	   30 R(22,28)        =      0.947000     0.184211     0.018023     0.965023
	   31 B(1,2,3)        =    118.620997     0.000168     0.399718   119.020715
	   32 B(1,2,7)        =    121.458788     0.000123     0.311402   121.770190
	   33 B(1,6,5)        =    120.110874    -0.000069    -0.127624   119.983250
	   34 B(1,6,21)       =    119.857977     0.000018     0.000995   119.858972
	   35 B(2,1,6)        =    120.759421    -0.000109    -0.274327   120.485095
	   36 B(2,1,20)       =    119.142001     0.000307     1.063041   120.205041
	   37 B(2,3,4)        =    120.808990    -0.000007    -0.060357   120.748632
	   38 B(2,3,24)       =    119.129007     0.000193     0.725737   119.854743
	   39 B(2,7,8)        =    118.764025     0.000430     1.539031   120.303057
	   40 B(2,7,11)       =    121.805526    -0.000078     0.218723   122.024249
	   41 B(2,7,12)       =    120.345701    -0.000428    -1.901783   118.443919
	   42 B(3,2,7)        =    119.888000    -0.000292    -0.719736   119.168265
	   43 B(3,4,5)        =    120.049043    -0.000052    -0.154706   119.894337
	   44 B(3,4,23)       =    119.905975     0.000178     0.635807   120.541782
	   45 B(4,3,24)       =    120.058136    -0.000185    -0.662698   119.395438
	   46 B(4,5,6)        =    119.649965     0.000070     0.217712   119.867677
	   47 B(4,5,22)       =    120.160057    -0.001047    -2.668620   117.491437
	   48 B(5,4,23)       =    120.043679    -0.000126    -0.480409   119.563270
	   49 B(5,6,21)       =    120.031012     0.000051     0.126468   120.157480
	   50 B(5,22,28)      =    109.471236    -0.000404    -1.538736   107.932500
	   51 B(6,1,20)       =    120.098304    -0.000197    -0.791367   119.306937
	   52 B(6,5,22)       =    120.189753     0.000977     2.451031   122.640784
	   53 B(7,8,9)        =    104.676012     0.000089     0.204771   104.880784
	   54 B(7,8,18)       =    110.963967    -0.000205    -1.154490   109.809477
	   55 B(7,8,19)       =    110.530980     0.000087     0.631175   111.162154
	   56 B(7,11,10)      =    108.227565     0.000233     0.859994   109.087559
	   57 B(7,11,12)      =     59.560711    -0.000235    -0.550352    59.010359
	   58 B(7,11,13)      =    119.266540    -0.000041     0.765982   120.032521
	   59 B(7,12,11)      =     60.717866    -0.000040    -0.354606    60.363260
	   60 B(7,12,25)      =    117.416011     0.000089     2.164454   119.580465
	   61 B(7,12,26)      =    117.863016     0.000075     2.424124   120.287140
	   62 B(7,12,27)      =    118.674982    -0.000009    -0.533479   118.141503
	   63 B(8,7,11)       =    106.277040    -0.000302    -0.976343   105.300697
	   64 B(8,7,12)       =    115.584897    -0.000030    -0.097399   115.487498
	   65 B(8,9,10)       =    104.692002     0.000075    -0.046648   104.645354
	   66 B(8,9,16)       =    108.690991    -0.000015     0.188387   108.879379
	   67 B(8,9,17)       =    113.419998    -0.000005    -0.008245   113.411753
	   68 B(9,8,18)       =    112.414302     0.000058     0.519261   112.933563
	   69 B(9,8,19)       =    110.858171    -0.000007     0.109002   110.967173
	   70 B(9,10,11)      =    104.235991    -0.000164    -0.736909   103.499082
	   71 B(9,10,14)      =    112.123993     0.000222     1.019522   113.143515
	   72 B(9,10,15)      =    110.744982     0.000040     0.510700   111.255682
	   73 B(10,9,16)      =    108.731301     0.000025     0.330165   109.061465
	   74 B(10,9,17)      =    113.498999    -0.000089    -0.443545   113.055453
	   75 B(10,11,12)     =    117.414996     0.000207     0.704089   118.119085
	   76 B(10,11,13)     =    119.982231     0.000070     0.961114   120.943345
	   77 B(11,7,12)      =     59.721423     0.000275     0.904958    60.626381
	   78 B(11,10,14)     =    111.713789    -0.000120    -0.873946   110.839843
	   79 B(11,10,15)     =    110.837637     0.000100     0.428772   111.266408
	   80 B(11,12,25)     =    117.068036    -0.000186    -1.991683   115.076353
	   81 B(11,12,26)     =    117.630561    -0.000744    -5.759714   111.870847
	   82 B(11,12,27)     =    166.621351    -0.000171    -1.501044   165.120307
	   83 B(12,11,13)     =    117.384004    -0.000321    -2.978980   114.405024
	   84 B(14,10,15)     =    107.243861    -0.000073    -0.324871   106.918989
	   85 B(16,9,17)      =    107.655246     0.000012     0.017619   107.672865
	   86 B(18,8,19)      =    107.438672    -0.000020    -0.292553   107.146119
	   87 B(25,12,26)     =    115.305919     0.000473     0.880586   116.186505
	   88 B(25,12,27)     =     75.649663     0.000345     3.372721    79.022384
	   89 B(26,12,27)     =     49.667332     0.000620     5.161632    54.828964
	   90 D(1,2,3,4)      =      0.127023    -0.000001    -0.070820     0.056204
	   91 D(1,2,3,24)     =    179.412021     0.000003     0.245613   179.657634
	   92 D(1,2,7,8)      =    109.075866    -0.000008    -1.192050   107.883816
	   93 D(1,2,7,11)     =   -115.144974    -0.000019    -0.415869  -115.560843
	   94 D(1,2,7,12)     =    -44.075804     0.000008    -0.097604   -44.173409
	   95 D(1,6,5,4)      =     -0.072568    -0.000000     0.000484    -0.072084
	   96 D(1,6,5,22)     =   -179.900465    -0.000000    -0.052695  -179.953160
	   97 D(2,1,6,5)      =      0.279712    -0.000001    -0.087124     0.192588
	   98 D(2,1,6,21)     =   -179.854616    -0.000002    -0.150838  -180.005455
	   99 D(2,3,4,5)      =      0.074953     0.000000    -0.012710     0.062243
	  100 D(2,3,4,23)     =    179.660022     0.000002     0.116685   179.776708
	  101 D(2,7,8,9)      =    120.375986    -0.000002     0.483154   120.859140
	  102 D(2,7,8,18)     =     -1.120483    -0.000005     0.361215    -0.759268
	  103 D(2,7,8,19)     =   -120.210485     0.000018     1.062281  -119.148204
	  104 D(2,7,11,10)    =   -139.317107    -0.000064    -1.709741  -141.026848
	  105 D(2,7,11,12)    =    109.044880    -0.000086    -2.030011   107.014870
	  106 D(2,7,11,13)    =      2.650975     0.000022     2.270373     4.921348
	  107 D(2,7,12,11)    =   -111.430950    -0.000042    -1.346466  -112.777416
	  108 D(2,7,12,25)    =     -4.162498    -0.000106    -4.860748    -9.023247
	  109 D(2,7,12,26)    =    140.811515     0.000174     6.969300   147.780815
	  110 D(2,7,12,27)    =     83.857495     0.000003     0.289000    84.146495
	  111 D(3,2,1,6)      =     -0.304050     0.000002     0.120238    -0.183812
	  112 D(3,2,1,20)     =    179.505653    -0.000005    -0.316164   179.189488
	  113 D(3,2,7,8)      =    -68.830973    -0.000006    -0.937672   -69.768644
	  114 D(3,2,7,11)     =     66.948187    -0.000016    -0.161491    66.786696
	  115 D(3,2,7,12)     =    138.017357     0.000011     0.156774   138.174131
	  116 D(3,4,5,6)      =     -0.102948     0.000001     0.048296    -0.054652
	  117 D(3,4,5,22)     =    179.725001     0.000002     0.107458   179.832459
	  118 D(4,3,2,7)      =    178.093004    -0.000004    -0.319129   177.773875
	  119 D(4,5,6,21)     =   -179.938005     0.000001     0.064561  -179.873444
	  120 D(4,5,22,28)    =    180.000000    -0.000002    -0.128660   179.871340
	  121 D(5,4,3,24)     =   -179.203428    -0.000005    -0.337572  -179.541000
	  122 D(5,6,1,20)     =   -179.528176     0.000005     0.341873  -179.186303
	  123 D(6,1,2,7)      =   -178.236668     0.000007     0.397033  -177.839636
	  124 D(6,5,4,23)     =   -179.687441    -0.000002    -0.084482  -179.771924
	  125 D(6,5,22,28)    =     -0.172989    -0.000001    -0.071927    -0.244916
	  126 D(7,2,1,20)     =      1.573035    -0.000000    -0.039370     1.533665
	  127 D(7,2,3,24)     =     -2.621999     0.000000    -0.002696    -2.624695
	  128 D(7,8,9,10)     =     33.771009     0.000034     1.102193    34.873202
	  129 D(7,8,9,16)     =    -82.280006     0.000021     0.658936   -81.621069
	  130 D(7,8,9,17)     =    158.020011     0.000020     0.511296   158.531307
	  131 D(7,11,10,9)    =     19.632339     0.000018     0.624221    20.256561
	  132 D(7,11,10,14)   =    140.914464     0.000041     0.934892   141.849356
	  133 D(7,11,10,15)   =    -99.548724     0.000017     0.233877   -99.314847
	  134 D(7,11,12,25)   =   -107.834882    -0.000040    -3.316259  -111.151142
	  135 D(7,11,12,26)   =    108.135088     0.000089     5.247713   113.382801
	  136 D(7,11,12,27)   =     91.136609    -0.000029    -2.745494    88.391115
	  137 D(7,12,11,10)   =    -95.964286    -0.000016    -0.440761   -96.405047
	  138 D(7,12,11,13)   =    109.524001     0.000003     2.105132   111.629133
	  139 D(8,7,11,10)    =      1.121989    -0.000011    -0.138262     0.983727
	  140 D(8,7,11,12)    =   -110.516024    -0.000033    -0.458531  -110.974556
	  141 D(8,7,11,13)    =    143.090070     0.000075     3.841853   146.931923
	  142 D(8,7,12,11)    =     94.605518    -0.000054    -0.755768    93.849750
	  143 D(8,7,12,25)    =   -158.126030    -0.000118    -4.270050  -162.396081
	  144 D(8,7,12,26)    =    -13.152017     0.000162     7.559998    -5.592019
	  145 D(8,7,12,27)    =    -70.106038    -0.000010     0.879698   -69.226339
	  146 D(8,9,10,11)    =    -32.865004    -0.000017    -0.798680   -33.663684
	  147 D(8,9,10,14)    =   -153.873999     0.000012     0.177527  -153.696473
	  148 D(8,9,10,15)    =     86.378974    -0.000007    -0.463896    85.915078
	  149 D(9,8,7,11)     =    -21.493819    -0.000001    -0.458938   -21.952757
	  150 D(9,8,7,12)     =    -85.226516    -0.000043    -1.072269   -86.298785
	  151 D(9,10,11,12)   =     84.160990    -0.000015     0.447869    84.608858
	  152 D(9,10,11,13)   =   -122.015576    -0.000058    -3.311144  -125.326720
	  153 D(10,9,8,18)    =    154.308062    -0.000002     0.114767   154.422830
	  154 D(10,9,8,19)    =    -85.422298    -0.000000     0.173070   -85.249228
	  155 D(10,11,7,12)   =    111.638013     0.000022     0.320270   111.958283
	  156 D(10,11,12,25)  =    156.200832    -0.000056    -3.757020   152.443811
	  157 D(10,11,12,26)  =     12.170802     0.000072     4.806952    16.977754
	  158 D(10,11,12,27)  =     -4.827677    -0.000045    -3.186255    -8.013932
	  159 D(11,7,8,18)    =   -142.990288    -0.000004    -0.580877  -143.571165
	  160 D(11,7,8,19)    =     97.919710     0.000019     0.120189    98.039899
	  161 D(11,7,12,25)   =    107.268451    -0.000064    -3.514282   103.754169
	  162 D(11,7,12,26)   =   -107.757535     0.000216     8.315766   -99.441770
	  163 D(11,7,12,27)   =   -164.711556     0.000045     1.635466  -163.076090
	  164 D(11,10,9,16)   =     83.158064    -0.000010    -0.453395    82.704669
	  165 D(11,10,9,17)   =   -157.063604    -0.000015    -0.486908  -157.550512
	  166 D(12,7,8,18)    =    153.277015    -0.000046    -1.194208   152.082806
	  167 D(12,7,8,19)    =     34.187013    -0.000023    -0.493142    33.693871
	  168 D(12,7,11,13)   =   -106.393905     0.000109     4.300384  -102.093521
	  169 D(12,11,10,14)  =   -154.556885     0.000008     0.758539  -153.798346
	  170 D(12,11,10,15)  =    -35.020073    -0.000016     0.057524   -34.962549
	  171 D(13,11,10,14)  =     -0.733451    -0.000035    -3.000473    -3.733924
	  172 D(13,11,10,15)  =    118.803361    -0.000059    -3.701489   115.101873
	  173 D(13,11,12,25)  =      1.689118    -0.000037    -1.211127     0.477991
	  174 D(13,11,12,26)  =   -142.340911     0.000091     7.352846  -134.988066
	  175 D(13,11,12,27)  =   -159.339390    -0.000026    -0.640362  -159.979752
	  176 D(14,10,9,16)   =    -37.850931     0.000019     0.522812   -37.328120
	  177 D(14,10,9,17)   =     81.927401     0.000014     0.489298    82.416699
	  178 D(15,10,9,16)   =   -157.597958     0.000000    -0.118611  -157.716569
	  179 D(15,10,9,17)   =    -37.819626    -0.000005    -0.152124   -37.971750
	  180 D(16,9,8,18)    =     38.257048    -0.000016    -0.328490    37.928558
	  181 D(16,9,8,19)    =    158.526687    -0.000014    -0.270187   158.256501
	  182 D(17,9,8,18)    =    -81.442936    -0.000017    -0.476130   -81.919066
	  183 D(17,9,8,19)    =     38.826704    -0.000015    -0.417827    38.408877
	  184 D(20,1,6,21)    =      0.337495     0.000004     0.278159     0.615654
	  185 D(21,6,5,22)    =      0.234098     0.000001     0.011382     0.245480
	  186 D(22,5,4,23)    =      0.140507    -0.000001    -0.025321     0.115186
	  187 D(23,4,3,24)    =      0.381641    -0.000003    -0.208176     0.173464
	 ---------------------------------------------------------------------------
	Successfully symmetrized geometry.

  ==> Convergence Check <==

  Measures of convergence in internal coordinates in au.
  Criteria marked as inactive (o), active & met (*), and active & unmet ( ).
  --------------------------------------------------------------------------------------------- ~
   Step     Total Energy     Delta E     MAX Force     RMS Force      MAX Disp      RMS Disp    ~
  --------------------------------------------------------------------------------------------- ~
    Convergence Criteria    1.00e-06 *    3.00e-04 *             o    1.20e-03 *             o  ~
  --------------------------------------------------------------------------------------------- ~
      1    -539.49127066   -5.39e+02      4.65e-02      5.71e-03 o    1.45e-01      3.50e-02 o  ~
  ---------------------------------------------------------------------------------------------

	Writing optimization data to binary file.
	Structure for next step:
	Cartesian Geometry (in Angstrom)
	    C     0.0002747551  -0.0250849630  -1.7051952799
	    C     0.0103794115  -0.0173775357  -0.2970239079
	    C     1.2488820618  -0.0038098687   0.3784562560
	    C     2.4512885582   0.0031307987  -0.3339053307
	    C     2.4329409968  -0.0020998341  -1.7386955480
	    C     1.2019510255  -0.0154934016  -2.4243841280
	    C    -1.2496112674  -0.0749900972   0.4971309429
	    C    -1.6285400457  -1.3602562368   1.2654169937
	    C    -1.7361683849  -0.9225617408   2.7412810656
	    C    -2.3021953234   0.5103720266   2.6826343073
	    C    -1.6958289570   1.0817446839   1.3988373533
	    C    -2.4109733947   0.7935237393   0.0691891676
	    H    -1.1256090213   2.0180027343   1.4128348258
	    H    -2.0225860836   1.1215092929   3.5530927713
	    H    -3.4043141897   0.5034102124   2.6359630493
	    H    -0.7239631236  -0.8925203741   3.1795029039
	    H    -2.3461206739  -1.6020783033   3.3555253529
	    H    -0.8628861669  -2.1309457310   1.1022309388
	    H    -2.5894772905  -1.7732735900   0.9037581379
	    H    -0.9509359045  -0.0490491186  -2.2498363215
	    H     1.1821368562  -0.0217082342  -3.5188445716
	    O     3.6315851119   0.0085886655  -2.3825543858
	    H     3.4089476796   0.0173113882   0.1928936972
	    H     1.2726514385   0.0079900965   1.4737091380
	    H    -2.2607819359   1.5601541347  -0.7227796625
	    H    -3.5060461871   0.4333294084   0.2347426867
	    H    -3.1553640694   0.3719753708  -0.8077195630
	    H     3.4589501602   0.0012545566  -3.3319821663
			--------------------------
			 OPTKING Finished Execution 
			--------------------------

    Structure for next step:
    Molecular point group: c1
    Full point group: C1

    Geometry (in Angstrom), charge = 1, multiplicity = 1:

    C           -0.001002535747    -0.021113263541    -1.703866125831
    C            0.009102120605    -0.013405836249    -0.295694748312
    C            1.247604775795     0.000161830787     0.379785418201
    C            2.450011276926     0.007102498239    -0.332576171291
    C            2.431663715421     0.001871865374    -1.737366394104
    C            1.200673739370    -0.011521702158    -2.423054976827
    C           -1.250888563229    -0.071018397928     0.498460105614
    C           -1.629817343023    -1.356284542594     1.266746159412
    C           -1.737445682600    -0.918590044879     2.742610237089
    C           -2.303472623300     0.514343728111     2.683963478596
    C           -1.697106254589     1.085716387633     1.400166519561
    C           -2.412250695073     0.797495441902     0.070518328618
    H           -1.126886316603     2.021974441766     1.414163992052
    H           -2.023863382425     1.125480996859     3.554421945985
    H           -3.405591493967     0.507381913861     2.637292220394
    H           -0.725240417297    -0.888548678110     3.180832077150
    H           -2.347397973973    -1.598106610083     3.356854526879
    H           -0.864163461180    -2.126974039880     1.103560103893
    H           -2.590754591547    -1.769301897400     0.905087302193
    H           -0.952213199128    -0.045077419221    -2.248507169595
    H            1.180859569981    -0.017736534750    -3.517515424682
    O            3.630307835256     0.012560365037    -2.381225234425
    H            3.407670402060     0.021283087796     0.194222858664
    H            1.271374152582     0.011961796010     1.475038304518
    H           -2.262059235701     1.564125840363    -0.721450504548
    H           -3.507323491792     0.437301109592     0.236071848365
    H           -3.156641372720     0.375947071746    -0.806390405473
    H            3.457672882917     0.005226256171    -3.330653018700


Scratch directory: /tmp/
gradient() will perform analytic gradient computation.

*** tstart() called on skystd39.palmetto.clemson.edu
*** at Thu Oct 14 16:30:08 2021

   => Loading Basis Set <=

    Name: CC-PVDZ
    Role: ORBITAL
    Keyword: BASIS
    atoms 1-12         entry C          line   138 file /home/maxbuskirk/.conda/envs/psifour/share/psi4/basis/cc-pvdz.gbs 
    atoms 13-21, 23-28 entry H          line    22 file /home/maxbuskirk/.conda/envs/psifour/share/psi4/basis/cc-pvdz.gbs 
    atoms 22           entry O          line   198 file /home/maxbuskirk/.conda/envs/psifour/share/psi4/basis/cc-pvdz.gbs 


         ---------------------------------------------------------
                                   SCF
               by Justin Turney, Rob Parrish, Andy Simmonett
                          and Daniel G. A. Smith
                              RHF Reference
                        1 Threads,  30517 MiB Core
         ---------------------------------------------------------

  ==> Geometry <==

    Molecular point group: c1
    Full point group: C1

    Geometry (in Angstrom), charge = 1, multiplicity = 1:

       Center              X                  Y                   Z               Mass       
    ------------   -----------------  -----------------  -----------------  -----------------
         C           -0.001002535747    -0.021113263541    -1.703866125831    12.000000000000
         C            0.009102120605    -0.013405836249    -0.295694748312    12.000000000000
         C            1.247604775795     0.000161830787     0.379785418201    12.000000000000
         C            2.450011276926     0.007102498239    -0.332576171291    12.000000000000
         C            2.431663715421     0.001871865374    -1.737366394104    12.000000000000
         C            1.200673739370    -0.011521702158    -2.423054976827    12.000000000000
         C           -1.250888563229    -0.071018397928     0.498460105614    12.000000000000
         C           -1.629817343023    -1.356284542594     1.266746159412    12.000000000000
         C           -1.737445682600    -0.918590044879     2.742610237089    12.000000000000
         C           -2.303472623300     0.514343728111     2.683963478596    12.000000000000
         C           -1.697106254589     1.085716387633     1.400166519561    12.000000000000
         C           -2.412250695073     0.797495441902     0.070518328618    12.000000000000
         H           -1.126886316603     2.021974441766     1.414163992052     1.007825032230
         H           -2.023863382425     1.125480996859     3.554421945985     1.007825032230
         H           -3.405591493967     0.507381913861     2.637292220394     1.007825032230
         H           -0.725240417297    -0.888548678110     3.180832077150     1.007825032230
         H           -2.347397973973    -1.598106610083     3.356854526879     1.007825032230
         H           -0.864163461180    -2.126974039880     1.103560103893     1.007825032230
         H           -2.590754591547    -1.769301897400     0.905087302193     1.007825032230
         H           -0.952213199128    -0.045077419221    -2.248507169595     1.007825032230
         H            1.180859569981    -0.017736534750    -3.517515424682     1.007825032230
         O            3.630307835256     0.012560365037    -2.381225234425    15.994914619570
         H            3.407670402060     0.021283087796     0.194222858664     1.007825032230
         H            1.271374152582     0.011961796010     1.475038304518     1.007825032230
         H           -2.262059235701     1.564125840363    -0.721450504548     1.007825032230
         H           -3.507323491792     0.437301109592     0.236071848365     1.007825032230
         H           -3.156641372720     0.375947071746    -0.806390405473     1.007825032230
         H            3.457672882917     0.005226256171    -3.330653018700     1.007825032230

  Running in c1 symmetry.

  Rotational constants: A =      0.07058  B =      0.01434  C =      0.01324 [cm^-1]
  Rotational constants: A =   2115.96318  B =    430.01347  C =    396.78936 [MHz]
  Nuclear repulsion =  774.847536542044054

  Charge       = 1
  Multiplicity = 1
  Electrons    = 94
  Nalpha       = 47
  Nbeta        = 47

  ==> Algorithm <==

  SCF Algorithm Type is DF.
  DIIS enabled.
  MOM disabled.
  Fractional occupation disabled.
  Guess Type is READ.
  Energy threshold   = 1.00e-10
  Density threshold  = 1.00e-10
  Integral threshold = 1.00e-12

  ==> Primary Basis <==

  Basis Set: CC-PVDZ
    Blend: CC-PVDZ
    Number of shells: 123
    Number of basis functions: 257
    Number of Cartesian functions: 270
    Spherical Harmonics?: true
    Max angular momentum: 2

   => Loading Basis Set <=

    Name: (CC-PVDZ AUX)
    Role: JKFIT
    Keyword: DF_BASIS_SCF
    atoms 1-12         entry C          line   121 file /home/maxbuskirk/.conda/envs/psifour/share/psi4/basis/cc-pvdz-jkfit.gbs 
    atoms 13-21, 23-28 entry H          line    51 file /home/maxbuskirk/.conda/envs/psifour/share/psi4/basis/cc-pvdz-jkfit.gbs 
    atoms 22           entry O          line   221 file /home/maxbuskirk/.conda/envs/psifour/share/psi4/basis/cc-pvdz-jkfit.gbs 

   => Loading Basis Set <=

    Name: CC-PVDZ
    Role: ORBITAL
    Keyword: BASIS
    atoms 1-12         entry C          line   138 file /home/maxbuskirk/.conda/envs/psifour/share/psi4/basis/cc-pvdz.gbs 
    atoms 13-21, 23-28 entry H          line    22 file /home/maxbuskirk/.conda/envs/psifour/share/psi4/basis/cc-pvdz.gbs 
    atoms 22           entry O          line   198 file /home/maxbuskirk/.conda/envs/psifour/share/psi4/basis/cc-pvdz.gbs 

  Reading orbitals from file /tmp/2ndcornerOH.mol.2959647.180.npy, no projection.

  ==> Integral Setup <==

  DFHelper Memory: AOs need 0.568 GiB; user supplied 22.352 GiB. Using in-core AOs.

  ==> MemDFJK: Density-Fitted J/K Matrices <==

    J tasked:                   Yes
    K tasked:                   Yes
    wK tasked:                   No
    OpenMP threads:               1
    Memory [MiB]:             22888
    Algorithm:                 Core
    Schwarz Cutoff:           1E-12
    Mask sparsity (%):      11.6883
    Fitting Condition:        1E-10

   => Auxiliary Basis Set <=

  Basis Set: (CC-PVDZ AUX)
    Blend: CC-PVDZ-JKFIT
    Number of shells: 447
    Number of basis functions: 1255
    Number of Cartesian functions: 1428
    Spherical Harmonics?: true
    Max angular momentum: 3

  Minimum eigenvalue in the overlap matrix is 3.3753414958E-04.
  Reciprocal condition number of the overlap matrix is 4.8150349271E-05.
    Using symmetric orthogonalization.

  ==> Pre-Iterations <==

  SCF Guess: Orbitals guess was supplied from a previous computation.

   -------------------------------------------------------
    Irrep   Nso     Nmo     Nalpha   Nbeta   Ndocc  Nsocc
   -------------------------------------------------------
     A        257     257      47      47      47       0
   -------------------------------------------------------
    Total     257     257      47      47      47       0
   -------------------------------------------------------

  ==> Iterations <==

                           Total Energy        Delta E     RMS |[F,P]|

   @DF-RHF iter   0:  -537.62832946289950   -5.37628e+02   6.24312e-04 
   @DF-RHF iter   1:  -537.66397269268589   -3.56432e-02   1.18743e-04 DIIS
   @DF-RHF iter   2:  -537.66470801459138   -7.35322e-04   5.09075e-05 DIIS
   @DF-RHF iter   3:  -537.66484994011842   -1.41926e-04   2.37104e-05 DIIS
   @DF-RHF iter   4:  -537.66489805654453   -4.81164e-05   8.43177e-06 DIIS
   @DF-RHF iter   5:  -537.66490564931451   -7.59277e-06   3.59493e-06 DIIS
   @DF-RHF iter   6:  -537.66490720236993   -1.55306e-06   1.25705e-06 DIIS
   @DF-RHF iter   7:  -537.66490742093652   -2.18567e-07   4.90203e-07 DIIS
   @DF-RHF iter   8:  -537.66490745039494   -2.94584e-08   2.37548e-07 DIIS
   @DF-RHF iter   9:  -537.66490745974761   -9.35268e-09   1.05092e-07 DIIS
   @DF-RHF iter  10:  -537.66490746179068   -2.04307e-09   4.45025e-08 DIIS
   @DF-RHF iter  11:  -537.66490746208206   -2.91379e-10   1.43915e-08 DIIS
   @DF-RHF iter  12:  -537.66490746210923   -2.71712e-11   4.74365e-09 DIIS
   @DF-RHF iter  13:  -537.66490746211321   -3.97904e-12   1.89946e-09 DIIS
   @DF-RHF iter  14:  -537.66490746211173    1.47793e-12   6.72122e-10 DIIS
   @DF-RHF iter  15:  -537.66490746211093    7.95808e-13   2.56169e-10 DIIS
   @DF-RHF iter  16:  -537.66490746211468   -3.75167e-12   1.13080e-10 DIIS
   @DF-RHF iter  17:  -537.66490746211298    1.70530e-12   4.92996e-11 DIIS
  Energy and wave function converged.


  ==> Post-Iterations <==

    Orbital Energies [Eh]
    ---------------------

    Doubly Occupied:                                                      

       1A    -20.697612     2A    -11.486633     3A    -11.469304  
       4A    -11.441364     5A    -11.429182     6A    -11.396307  
       7A    -11.390298     8A    -11.384007     9A    -11.379452  
      10A    -11.377157    11A    -11.377144    12A    -11.362711  
      13A    -11.356130    14A     -1.514059    15A     -1.390473  
      16A     -1.271588    17A     -1.220456    18A     -1.160801  
      19A     -1.142990    20A     -1.123156    21A     -1.091052  
      22A     -0.976897    23A     -0.963924    24A     -0.960167  
      25A     -0.915703    26A     -0.868594    27A     -0.849673  
      28A     -0.831945    29A     -0.787334    30A     -0.779760  
      31A     -0.759573    32A     -0.745138    33A     -0.734904  
      34A     -0.712189    35A     -0.699048    36A     -0.693788  
      37A     -0.683024    38A     -0.663054    39A     -0.656052  
      40A     -0.639590    41A     -0.630854    42A     -0.625129  
      43A     -0.613644    44A     -0.600612    45A     -0.578608  
      46A     -0.464394    47A     -0.430326  

    Virtual:                                                              

      48A     -0.106883    49A     -0.020530    50A      0.001012  
      51A      0.013041    52A      0.028629    53A      0.049593  
      54A      0.073458    55A      0.079483    56A      0.087217  
      57A      0.094213    58A      0.108908    59A      0.117069  
      60A      0.120798    61A      0.134543    62A      0.142617  
      63A      0.148064    64A      0.163808    65A      0.174182  
      66A      0.190601    67A      0.214634    68A      0.220757  
      69A      0.231781    70A      0.255823    71A      0.261500  
      72A      0.305823    73A      0.310247    74A      0.331406  
      75A      0.346033    76A      0.357001    77A      0.371255  
      78A      0.378699    79A      0.423117    80A      0.446547  
      81A      0.469346    82A      0.483183    83A      0.499424  
      84A      0.517208    85A      0.521713    86A      0.522043  
      87A      0.535180    88A      0.537503    89A      0.563273  
      90A      0.576243    91A      0.576892    92A      0.587631  
      93A      0.599556    94A      0.609422    95A      0.610609  
      96A      0.614440    97A      0.625590    98A      0.643486  
      99A      0.654781   100A      0.661081   101A      0.674992  
     102A      0.686854   103A      0.693008   104A      0.698166  
     105A      0.705807   106A      0.711328   107A      0.714705  
     108A      0.719701   109A      0.733489   110A      0.744672  
     111A      0.751837   112A      0.752538   113A      0.760531  
     114A      0.764820   115A      0.773557   116A      0.782183  
     117A      0.789874   118A      0.800487   119A      0.803920  
     120A      0.824464   121A      0.826269   122A      0.844239  
     123A      0.862684   124A      0.881290   125A      0.900793  
     126A      0.967752   127A      0.990399   128A      1.009461  
     129A      1.017222   130A      1.029627   131A      1.044934  
     132A      1.051560   133A      1.084354   134A      1.103773  
     135A      1.112212   136A      1.128008   137A      1.143153  
     138A      1.160932   139A      1.170689   140A      1.176857  
     141A      1.182018   142A      1.198351   143A      1.233346  
     144A      1.241308   145A      1.260690   146A      1.278171  
     147A      1.280101   148A      1.298529   149A      1.310669  
     150A      1.323662   151A      1.351920   152A      1.368491  
     153A      1.391733   154A      1.426329   155A      1.446141  
     156A      1.464512   157A      1.492426   158A      1.496074  
     159A      1.511022   160A      1.528289   161A      1.548265  
     162A      1.569924   163A      1.576883   164A      1.592603  
     165A      1.630683   166A      1.636861   167A      1.646337  
     168A      1.663082   169A      1.674514   170A      1.681665  
     171A      1.698147   172A      1.701607   173A      1.733370  
     174A      1.736952   175A      1.756156   176A      1.764041  
[...]
      17        0.000344923148    -0.000284967495     0.000416554225
      18        0.000000729043    -0.000291991415    -0.000411308476
      19       -0.000176265805    -0.000055853309    -0.000292193442
      20       -0.000133728810    -0.000177790887    -0.000267464706
      21       -0.000081930471     0.000000356312    -0.000364018835
      22       -0.000369469081    -0.000050138264     0.000975862022
      23        0.000384429490     0.000038698838     0.000032173323
      24       -0.000031408984     0.000095116114     0.000194591162
      25       -0.000663719908     0.001872390704     0.001478927956
      26       -0.000828381060     0.001121608447     0.001731174557
      27       -0.013867223886     0.026355135966     0.002950948137
      28        0.000090053819     0.000012287135    -0.000726755188


*** tstop() called on skystd39.palmetto.clemson.edu at Thu Oct 14 16:40:24 2021
Module time:
	user time   =      53.68 seconds =       0.89 minutes
	system time =       3.41 seconds =       0.06 minutes
	total time  =         58 seconds =       0.97 minutes
Total time:
	user time   =     647.84 seconds =      10.80 minutes
	system time =      36.88 seconds =       0.61 minutes
	total time  =        688 seconds =      11.47 minutes

			-----------------------------------------
			 OPTKING 2.0: for geometry optimizations 
			  - R.A. King,  Bethel University        
			-----------------------------------------

	Previous internal coordinate definitions found.
	---Fragment 1 Geometry and Gradient---
	 C           0.0754127258       -0.0036799356       -3.1857940859
	 C           0.0366052500        0.0118134975       -0.5294571363
	 C           2.3295752185        0.2987723309        0.8107284771
	 C           4.6077010486        0.5797511466       -0.4876346082
	 C           4.6419504689        0.5837704083       -3.1552005695
	 C           2.3591709727        0.2929880260       -4.4936707645
	 C          -2.3253396606       -0.4065068680        0.9648821560
	 C          -2.9922982829       -2.9558852189        2.2161258495
	 C          -3.3248982499       -2.2681386851        5.0272004177
	 C          -4.5135452748        0.3979885677        4.9741912023
	 C          -3.2872323356        1.5564798931        2.6529790743
	 C          -4.6725917157        0.9251390666       -0.2596649008
	 H          -2.6389341088        3.5199248282        2.5852839968
	 H          -4.0867927661        1.5783045204        6.6356307676
	 H          -6.5903703361        0.3225506764        4.8163584396
	 H          -1.4436200005       -2.1503887455        5.9194903203
	 H          -4.4539779848       -3.6407044823        6.1044824225
	 H          -1.4726655402       -4.3309361240        1.8792222426
	 H          -4.7424046924       -3.7417120736        1.3980913624
	 H          -1.6663785957       -0.2660721382       -4.2708382940
	 H           2.3608794940        0.2884072497       -6.5636539396
	 O           6.9195396481        0.8772536135       -4.2722915880
	 H           6.3971801756        0.8053817410        0.5202809342
	 H           2.3342783980        0.2967280505        2.8818308003
	 H          -4.2747417531        2.9073459002       -0.8319841276
	 H          -6.4491988019        0.9575905060        0.8788464484
	 H          -5.6703633902        0.4618931792       -2.0502066639
	 H           6.7065713344        0.8271213120       -6.0921856449
	            -0.0002053135        0.0012369063       -0.0000332067
	            -0.0015392513        0.0005266273       -0.0009145826
	             0.0009494346       -0.0008216327        0.0006582677
	            -0.0009244228       -0.0002083476        0.0010569686
	             0.0006990157        0.0001241159       -0.0013292807
	            -0.0000645751        0.0000581042       -0.0000730978
	             0.0034160979       -0.0023574425        0.0050030949
	            -0.0007182670        0.0015772977        0.0013728488
	            -0.0004229399        0.0003608457        0.0000359993
	             0.0011589586       -0.0010008940        0.0015907961
	            -0.0197191959        0.0149122570       -0.0217539336
	             0.0313842718       -0.0421914230        0.0075354492
	             0.0016888188       -0.0001775014        0.0018196805
	            -0.0006808510        0.0000916976        0.0003555886
	            -0.0002357018       -0.0010555485       -0.0006579310
	             0.0005459135        0.0002900859       -0.0003851519
	             0.0003449231       -0.0002849675        0.0004165542
	             0.0000007290       -0.0002919914       -0.0004113085
	            -0.0001762658       -0.0000558533       -0.0002921934
	            -0.0001337288       -0.0001777909       -0.0002674647
	            -0.0000819305        0.0000003563       -0.0003640188
	            -0.0003694691       -0.0000501383        0.0009758620
	             0.0003844295        0.0000386988        0.0000321733
	            -0.0000314090        0.0000951161        0.0001945912
	            -0.0006637199        0.0018723907        0.0014789280
	            -0.0008283811        0.0011216084        0.0017311746
	            -0.0138672239        0.0263551360        0.0029509481
	             0.0000900538        0.0000122871       -0.0007267552

	---Fragment 1 Intrafragment Coordinates---
	 - Coordinate -           - BOHR/RAD -       - ANG/DEG -
	 R(1,2)           =         2.656666	       1.405847
	 R(1,6)           =         2.648416	       1.401481
	 R(1,20)          =         2.068818	       1.094771
	 R(2,3)           =         2.671358	       1.413622
	 R(2,7)           =         2.826097	       1.495506
	 R(3,4)           =         2.637149	       1.395519
	 R(3,24)          =         2.071109	       1.095984
	 R(4,5)           =         2.667789	       1.411733
	 R(4,23)          =         2.066165	       1.093368
	 R(5,6)           =         2.662168	       1.408759
	 R(5,22)          =         2.553710	       1.351365
	 R(6,21)          =         2.069989	       1.095391
	 R(7,8)           =         2.917152	       1.543690
	 R(7,11)          =         2.761924	       1.461547
	 R(7,12)          =         2.963510	       1.568222
	 R(8,9)           =         2.913032	       1.541510
	 R(8,18)          =         2.076909	       1.099053
	 R(8,19)          =         2.085564	       1.103633
	 R(9,10)          =         2.919576	       1.544973
	 R(9,16)          =         2.085487	       1.103592
	 R(9,17)          =         2.078291	       1.099784
	 R(10,11)         =         2.869490	       1.518469
	 R(10,14)         =         2.082221	       1.101864
	 R(10,15)         =         2.084180	       1.102900
	 R(11,12)         =         3.286534	       1.739159
	 R(11,13)         =         2.068813	       1.094769
	 R(12,25)         =         2.101185	       1.111899
	 R(12,26)         =         2.110354	       1.116751
	 R(12,27)         =         2.101472	       1.112051
	 R(22,28)         =         1.832998	       0.969981
	 B(1,2,3)         =         2.082557	     119.321715
	 B(1,2,7)         =         2.141286	     122.686641
	 B(1,6,5)         =         2.098292	     120.223250
	 B(1,6,21)        =         2.087821	     119.623345
	 B(2,1,6)         =         2.101008	     120.378864
	 B(2,1,20)        =         2.109300	     120.853970
	 B(2,3,4)         =         2.101272	     120.394015
	 B(2,3,24)        =         2.098474	     120.233727
	 B(2,7,8)         =         2.149863	     123.178102
	 B(2,7,11)        =         2.104877	     120.600545
	 B(2,7,12)        =         1.957313	     112.145756
	 B(3,2,7)         =         2.057829	     117.904921
	 B(3,4,5)         =         2.098494	     120.234859
	 B(3,4,23)        =         2.117228	     121.308220
	 B(4,3,24)        =         2.083434	     119.371998
	 B(4,5,6)         =         2.084676	     119.443126
	 B(4,5,22)        =         2.036470	     116.681146
	 B(5,4,23)        =         2.067460	     118.456749
	 B(5,6,21)        =         2.097061	     120.152750
	 B(5,22,28)       =         1.904500	     109.119823
	 B(6,1,20)        =         2.072826	     118.764184
	 B(6,5,22)        =         2.162038	     123.875660
	 B(7,8,9)         =         1.806668	     103.514433
	 B(7,8,18)        =         1.919557	     109.982496
	 B(7,8,19)        =         1.931473	     110.665273
	 B(7,11,10)       =         1.935118	     110.874069
	 B(7,11,12)       =         1.010548	      57.900128
	 B(7,11,13)       =         2.147659	     123.051797
	 B(7,12,11)       =         0.909993	      52.138783
	 B(7,12,25)       =         1.967610	     112.735754
	 B(7,12,26)       =         2.038434	     116.793690
	 B(7,12,27)       =         2.251166	     128.982313
	 B(8,7,11)        =         1.853903	     106.220845
	 B(8,7,12)        =         1.970172	     112.882567
	 B(8,9,10)        =         1.817864	     104.155915
	 B(8,9,16)        =         1.899922	     108.857489
	 B(8,9,17)        =         1.989212	     113.973463
	 B(9,8,18)        =         1.978373	     113.352451
	 B(9,8,19)        =         1.951587	     111.817711
	 B(9,10,11)       =         1.781732	     102.085714
	 B(9,10,14)       =         2.003929	     114.816698
	 B(9,10,15)       =         1.954131	     111.963443
	 B(10,9,16)       =         1.900193	     108.873057
	 B(10,9,17)       =         1.972869	     113.037065
	 B(10,11,12)      =         2.047892	     117.335573
	 B(10,11,13)      =         2.145464	     122.926018
	 B(11,7,12)       =         1.221051	      69.961089
	 B(11,10,14)      =         1.906057	     109.209001
	 B(11,10,15)      =         1.959737	     112.284662
	 B(11,12,25)      =         1.551151	      88.874432
	 B(11,12,26)      =         1.444254	      82.749648
	 B(11,12,27)      =         3.072224	     176.025454
	 B(12,11,13)      =         1.860229	     106.583271
	 B(14,10,15)      =         1.859981	     106.569034
	 B(16,9,17)       =         1.881350	     107.793411
	 B(18,8,19)       =         1.876435	     107.511830
	 B(25,12,26)      =         1.866946	     106.968144
	 B(25,12,27)      =         1.636623	      93.771564
	 B(26,12,27)      =         1.634186	      93.631979
	 D(1,2,3,4)       =         0.006919	       0.396457
	 D(1,2,3,24)      =        -3.131415	    -179.416862
	 D(1,2,7,8)       =         1.758691	     100.765590
	 D(1,2,7,11)      =        -2.067875	    -118.480513
	 D(1,2,7,12)      =        -0.687333	     -39.381289
	 D(1,6,5,4)       =        -0.002644	      -0.151484
	 D(1,6,5,22)      =         3.140668	     179.947043
	 D(2,1,6,5)       =         0.011368	       0.651315
	 D(2,1,6,21)      =        -3.135354	    -179.642571
	 D(2,3,4,5)       =         0.001699	       0.097338
	 D(2,3,4,23)      =         3.140613	     179.943898
	 D(2,7,8,9)       =         2.146203	     122.968362
	 D(2,7,8,18)      =         0.027168	       1.556594
	 D(2,7,8,19)      =        -2.043538	    -117.086122
	 D(2,7,11,10)     =        -2.540521	    -145.561157
	 D(2,7,11,12)     =         1.823958	     104.505100
	 D(2,7,11,13)     =         0.259378	      14.861252
	 D(2,7,12,11)     =        -2.022575	    -115.884986
	 D(2,7,12,25)     =        -0.812273	     -46.539839
	 D(2,7,12,26)     =        -2.984839	    -171.018706
	 D(2,7,12,27)     =         1.203979	      68.982892
	 D(3,2,1,6)       =        -0.013442	      -0.770194
	 D(3,2,1,20)      =         3.117049	     178.593776
	 D(3,2,7,8)       =        -1.323335	     -75.821500
	 D(3,2,7,11)      =         1.133284	      64.932397
	 D(3,2,7,12)      =         2.513826	     144.031621
	 D(3,4,5,6)       =        -0.003864	      -0.221374
	 D(3,4,5,22)      =         3.136131	     179.687076
	 D(4,3,2,7)       =         3.091014	     177.102079
	 D(4,5,6,21)      =        -3.139080	    -179.856033
	 D(4,5,22,28)     =         3.128762	     179.264880
	 D(5,4,3,24)      =         3.140061	     179.912259
	 D(5,6,1,20)      =        -3.119354	    -178.725811
	 D(6,1,2,7)       =        -3.094659	    -177.310875
	 D(6,5,4,23)      =         3.140331	     179.927739
	 D(6,5,22,28)     =        -0.014506	      -0.831146
	 D(7,2,1,20)      =         0.035833	       2.053096
	 D(7,2,3,24)      =        -0.047320	      -2.711240
	 D(7,8,9,10)      =         0.615230	      35.250076
	 D(7,8,9,16)      =        -1.409684	     -80.768954
	 D(7,8,9,17)      =         2.772995	     158.880930
	 D(7,11,10,9)     =         0.362348	      20.761025
	 D(7,11,10,14)    =         2.490730	     142.708337
	 D(7,11,10,15)    =        -1.733337	     -99.312893
	 D(7,11,12,25)    =        -2.100057	    -120.324415
	 D(7,11,12,26)    =         2.311046	     132.413163
	 D(7,11,12,27)    =         1.882945	     107.884814
	 D(7,12,11,10)    =        -1.720583	     -98.582122
	 D(7,12,11,13)    =         2.077112	     119.009748
	 D(8,7,11,10)     =         0.016950	       0.971182
	 D(8,7,11,12)     =        -1.901755	    -108.962561
	 D(8,7,11,13)     =         2.816850	     161.393591
	 D(8,7,12,11)     =         1.740407	      99.717977
	 D(8,7,12,25)     =         2.950708	     169.063124
	 D(8,7,12,26)     =         0.778142	      44.584257
	 D(8,7,12,27)     =        -1.316225	     -75.414145
	 D(8,9,10,11)     =        -0.594820	     -34.080693
	 D(8,9,10,14)     =        -2.654589	    -152.096740
	 D(8,9,10,15)     =         1.504783	      86.217727
	 D(9,8,7,11)      =        -0.392380	     -22.481746
	 D(9,8,7,12)      =        -1.695428	     -97.140861
	 D(9,10,11,12)    =         1.474103	      84.459859
	 D(9,10,11,13)    =        -2.438057	    -139.690398
	 D(10,9,8,18)     =         2.694213	     154.367043
	 D(10,9,8,19)     =        -1.464423	     -83.905280
	 D(10,11,7,12)    =         1.918706	     109.933743
	 D(10,11,12,25)   =         2.462545	     141.093463
	 D(10,11,12,26)   =         0.590463	      33.831041
	 D(10,11,12,27)   =         0.162363	       9.302692
	 D(11,7,8,18)     =        -2.511416	    -143.893514
	 D(11,7,8,19)     =         1.701064	      97.463770
	 D(11,7,12,25)    =         1.210301	      69.345147
	 D(11,7,12,26)    =        -0.962265	     -55.133719
	 D(11,7,12,27)    =        -3.056632	    -175.132122
	 D(11,10,9,16)    =         1.429904	      81.927437
	 D(11,10,9,17)    =        -2.763150	    -158.316856
	 D(12,7,8,18)     =         2.468722	     141.447371
	 D(12,7,8,19)     =         0.398016	      22.804655
	 D(12,7,11,13)    =        -1.564580	     -89.643848
	 D(12,11,10,14)   =        -2.680701	    -153.592829
	 D(12,11,10,15)   =        -0.621583	     -35.614058
	 D(13,11,10,14)   =        -0.309675	     -17.743086
	 D(13,11,10,15)   =         1.749443	     100.235684
	 D(13,11,12,25)   =        -0.022945	      -1.314667
	 D(13,11,12,26)   =        -1.895028	    -108.577090
	 D(13,11,12,27)   =        -2.323128	    -133.105439
	 D(14,10,9,16)    =        -0.629865	     -36.088611
	 D(14,10,9,17)    =         1.460266	      83.667096
	 D(15,10,9,16)    =        -2.753678	    -157.774144
	 D(15,10,9,17)    =        -0.663547	     -38.018437
	 D(16,9,8,18)     =         0.669299	      38.348013
	 D(16,9,8,19)     =         2.793848	     160.075690
	 D(17,9,8,18)     =        -1.431207	     -82.002102
	 D(17,9,8,19)     =         0.693342	      39.725574
	 D(20,1,6,21)     =         0.017110	       0.980304
	 D(21,6,5,22)     =         0.004232	       0.242493
	 D(22,5,4,23)     =        -0.002859	      -0.163811
	 D(23,4,3,24)     =        -0.004209	      -0.241181

	Current energy   :      -539.5512919734

	Energy change for the previous step:
		Projected    :        -0.0046464019
		Actual       :        -0.0054634059

	Performing Bofill update.
	Previous computed or guess Hessian on step 1.
	Steps to be used in Hessian update: 9 8
	Taking PRFO optimization step.
	Maximizing along 1 lowest eigenvalue of Hessian.

 RFO min eigenvalues
 -0.003489 -0.000000 -0.000000 -0.000000 -0.000000 -0.000000 -0.000000 -0.000000
 -0.000000 -0.000000 -0.000000 -0.000000 -0.000000 -0.000000 -0.000000 -0.000000
 -0.000000 -0.000000 -0.000000 -0.000000 -0.000000 -0.000000 -0.000000 -0.000000
 -0.000000 -0.000000 -0.000000 -0.000000 -0.000000 -0.000000 -0.000000 -0.000000
 -0.000000 -0.000000 -0.000000 -0.000000 -0.000000 -0.000000 -0.000000 -0.000000
 -0.000000 -0.000000 -0.000000 -0.000000 -0.000000 -0.000000 -0.000000 -0.000000
 -0.000000 -0.000000 -0.000000 -0.000000 -0.000000 -0.000000 -0.000000 -0.000000
  0.000000  0.000000  0.000000  0.000000  0.000000  0.000000  0.000000  0.000000
  0.000000  0.000000  0.000000  0.000000  0.000000  0.000000  0.000000  0.000000
  0.000000  0.000000  0.000000  0.000000  0.000000  0.000000  0.000000  0.000000
  0.000000  0.000000  0.000000  0.000000  0.000000  0.000000  0.000000  0.000000
  0.000000  0.000000  0.000000  0.000000  0.000000  0.000000  0.000000  0.000000
  0.000000  0.000000  0.000000  0.000000  0.000000  0.000000  0.000000  0.000000
  0.000000  0.000000  0.000000  0.000000  0.000000  0.000000  0.003594  0.005962
  0.007591  0.007921  0.012449  0.013071  0.015199  0.015731  0.017013  0.017255
  0.017372  0.017495  0.017561  0.017609  0.017655  0.018067  0.020486  0.027619
  0.029047  0.036352  0.042822  0.050179  0.053918  0.058074  0.061078  0.064085
  0.068871  0.069784  0.070220  0.078194  0.079840  0.087755  0.091487  0.097870
  0.103783  0.110639  0.159541  0.159984  0.159999  0.160000  0.161191  0.165827
  0.177693  0.199244  0.204306  0.220026  0.229642  0.240083  0.249700  0.249989
  0.263012  0.265913  0.276320  0.290653  0.300978  0.331188  0.331297  0.331546
  0.331824  0.333287  0.335057  0.335232  0.341745  0.342649  0.343061  0.343072
  0.343308  0.343476  0.345821  0.407337  0.409045  0.442319  0.445099  0.448709
  0.450608  0.490930  0.583250

 RFO max eigenvalues
 -0.012867  0.000249
	Change in coordinate exceeds step limit of    0.50000.
	Scaling displacements by    0.95183
	|RFO target step|  :        0.5000000000
	RFO gradient       :       -0.0061682723
	RFO hessian        :        0.0085151459
	Projected Delta(E) :       -0.0016157943

	Back-transformation to cartesian coordinates...
	The INTCO_EXCEPTion handler:
	TORS::compute_val: unable to compute torsion value
	Dynamic level is 0.
	exc.g_really_quit() is 0.

  **** Optimization has failed! (in 10 steps) ****
			--------------------------
			 OPTKING Finished Execution 
			--------------------------
	Removing binary optimization data file.
	Cleaning optimization helper files.

PsiException: Could not converge geometry optimization in 9 iterations.


Traceback (most recent call last):
  File "/home/maxbuskirk/.conda/envs/psifour/bin/psi4", line 333, in <module>
    exec(content)
  File "<string>", line 59, in <module>
  File "/home/maxbuskirk/.conda/envs/psifour/lib//python3.9/site-packages/psi4/driver/driver.py", line 1433, in optimize
    raise OptimizationConvergenceError("""geometry optimization""", n - 1, wfn)

psi4.driver.p4util.exceptions.OptimizationConvergenceError: Could not converge geometry optimization in 9 iterations.


Printing out the relevant lines from the Psithon --> Python processed input file:
    core.set_global_option("BASIS", "cc-pVDZ")
    core.set_global_option("REFERENCE", "rhf")
    core.set_global_option("GEOM_MAXITER", 400)
    mol.update_geometry()
    mol.symmetrize(1e-3)
--> e, wfn = optimize('mp2', return_wfn=True)
    oeprop(wfn, "MULLIKEN_CHARGES")
    mol.print_out()
    print_variables()

!------------------------------------------------------------!
!                                                            !
!  Could not converge geometry optimization in 9 iterations. !
!                                                            !
!------------------------------------------------------------!

    Psi4 stopped on: Thursday, 14 October 2021 04:40PM
    Psi4 wall time for execution: 0:11:28.07

*** Psi4 encountered an error. Buy a developer more coffee!
*** Resources and help at github.com/psi4/psi4.
