
    -----------------------------------------------------------------------
          Psi4: An Open-Source Ab Initio Electronic Structure Package
                               Psi4 1.4 release

                         Git: Rev {HEAD} 9485035 


    D. G. A. Smith, L. A. Burns, A. C. Simmonett, R. M. Parrish,
    M. C. Schieber, R. Galvelis, P. Kraus, H. Kruse, R. Di Remigio,
    A. Alenaizan, A. M. James, S. Lehtola, J. P. Misiewicz, M. Scheurer,
    R. A. Shaw, J. B. Schriber, Y. Xie, Z. L. Glick, D. A. Sirianni,
    J. S. O'Brien, J. M. Waldrop, A. Kumar, E. G. Hohenstein,
    B. P. Pritchard, B. R. Brooks, H. F. Schaefer III, A. Yu. Sokolov,
    K. Patkowski, A. E. DePrince III, U. Bozkaya, R. A. King,
    F. A. Evangelista, J. M. Turney, T. D. Crawford, C. D. Sherrill,
    J. Chem. Phys. 152(18) 184108 (2020). https://doi.org/10.1063/5.0006002

                            Additional Code Authors
    E. T. Seidl, C. L. Janssen, E. F. Valeev, M. L. Leininger,
    J. F. Gonthier, R. M. Richard, H. R. McAlexander, M. Saitow, X. Wang,
    P. Verma, and M. H. Lechner

             Previous Authors, Complete List of Code Contributors,
                       and Citations for Specific Modules
    https://github.com/psi4/psi4/blob/master/codemeta.json
    https://github.com/psi4/psi4/graphs/contributors
    http://psicode.org/psi4manual/master/introduction.html#citing-psifour

    -----------------------------------------------------------------------


    Psi4 started on: Thursday, 14 October 2021 04:21PM

    Process ID: 2958337
    Host:       skystd39.palmetto.clemson.edu
    PSIDATADIR: /home/maxbuskirk/.conda/envs/psifour/share/psi4
    Memory:     500.0 MiB
    Threads:    1
    
  ==> Input File <==

--------------------------------------------------------------------------
memory 32 GB

molecule mol {
1 1
C     0.000000     0.000000     0.000000
 C     0.000000     0.000000     1.408159
 C     1.238390     0.000000     2.083940
 C     2.446171     0.002671     1.370515
 C     2.433389     0.006984    -0.034905
 C     1.206959     0.006405    -0.718344
 C    -1.272775    -0.045945     2.187365
 C    -1.628447    -1.335766     2.950642
 C    -1.737379    -0.899581     4.425121
 C    -2.298884     0.536035     4.367965
 C    -1.714925     1.117079     3.080374
 C    -2.447067     0.821045     1.785889
 H    -1.105209     2.024766     3.117431
 H    -2.010969     1.129559     5.250215
 H    -3.402905     0.523128     4.327995
 H    -0.722722    -0.866532     4.860367
 H    -2.343692    -1.584853     5.041474
 H    -0.859446    -2.109250     2.797197
 H    -2.588575    -1.747216     2.590082
 H    -0.956167    -0.008250    -0.533134
 H     1.189730     0.008722    -1.812628
Cl     3.929804     0.017526    -0.922728
 H     3.398462     0.008262     1.909827
 H     1.248128     0.009821     3.179443
 H    -2.297185     1.520127     0.958263
 H    -3.450761     0.388542     1.857464
 H    -3.244899     0.396095     0.858224
}

set scf_type df
set opt_type ts
set basis cc-pVDZ
set reference rhf
set geom_maxiter 400


mol.update_geometry()
mol.symmetrize(1e-3)

e, wfn = optimize('mp2', return_wfn=True)
oeprop(wfn, "MULLIKEN_CHARGES")
mol.print_out()
print_variables()
--------------------------------------------------------------------------

  Memory set to  29.802 GiB by Python driver.

Scratch directory: /tmp/
gradient() will perform analytic gradient computation.

*** tstart() called on skystd39.palmetto.clemson.edu
*** at Thu Oct 14 16:21:21 2021

   => Loading Basis Set <=

    Name: CC-PVDZ
    Role: ORBITAL
    Keyword: BASIS
    atoms 1-12         entry C          line   138 file /home/maxbuskirk/.conda/envs/psifour/share/psi4/basis/cc-pvdz.gbs 
    atoms 13-21, 23-27 entry H          line    22 file /home/maxbuskirk/.conda/envs/psifour/share/psi4/basis/cc-pvdz.gbs 
    atoms 22           entry CL         line   658 file /home/maxbuskirk/.conda/envs/psifour/share/psi4/basis/cc-pvdz.gbs 


         ---------------------------------------------------------
                                   SCF
               by Justin Turney, Rob Parrish, Andy Simmonett
                          and Daniel G. A. Smith
                              RHF Reference
                        1 Threads,  30517 MiB Core
         ---------------------------------------------------------

  ==> Geometry <==

    Molecular point group: c1
    Full point group: C1

    Geometry (in Angstrom), charge = 1, multiplicity = 1:

       Center              X                  Y                   Z               Mass       
    ------------   -----------------  -----------------  -----------------  -----------------
         C           -0.387643259343    -0.014556295077    -1.436128155625    12.000000000000
         C           -0.387643259343    -0.014556295077    -0.027969155625    12.000000000000
         C            0.850746740657    -0.014556295077     0.647811844375    12.000000000000
         C            2.058527740657    -0.011885295077    -0.065613155625    12.000000000000
         C            2.045745740657    -0.007572295077    -1.471033155625    12.000000000000
         C            0.819315740657    -0.008151295077    -2.154472155625    12.000000000000
         C           -1.660418259343    -0.060501295077     0.751236844375    12.000000000000
         C           -2.016090259343    -1.350322295077     1.514513844375    12.000000000000
         C           -2.125022259343    -0.914137295077     2.988992844375    12.000000000000
         C           -2.686527259343     0.521478704923     2.931836844375    12.000000000000
         C           -2.102568259343     1.102522704923     1.644245844375    12.000000000000
         C           -2.834710259343     0.806488704923     0.349760844375    12.000000000000
         H           -1.492852259343     2.010209704923     1.681302844375     1.007825032230
         H           -2.398612259343     1.115002704923     3.814086844375     1.007825032230
         H           -3.790548259343     0.508571704923     2.891866844375     1.007825032230
         H           -1.110365259343    -0.881088295077     3.424238844375     1.007825032230
         H           -2.731335259343    -1.599409295077     3.605345844375     1.007825032230
         H           -1.247089259343    -2.123806295077     1.361068844375     1.007825032230
         H           -2.976218259343    -1.761772295077     1.153953844375     1.007825032230
         H           -1.343810259343    -0.022806295077    -1.969262155625     1.007825032230
         H            0.802086740657    -0.005834295077    -3.248756155625     1.007825032230
         CL           3.542160740657     0.002969704923    -2.358856155625    34.968852682000
         H            3.010818740657    -0.006294295077     0.473698844375     1.007825032230
         H            0.860484740657    -0.004735295077     1.743314844375     1.007825032230
         H           -2.684828259343     1.505570704923    -0.477865155625     1.007825032230
         H           -3.838404259343     0.373985704923     0.421335844375     1.007825032230
         H           -3.632542259343     0.381538704923    -0.577904155625     1.007825032230

  Running in c1 symmetry.

  Rotational constants: A =      0.06996  B =      0.01064  C =      0.01000 [cm^-1]
  Rotational constants: A =   2097.31828  B =    318.86140  C =    299.75054 [MHz]
  Nuclear repulsion =  843.938090663204207

  Charge       = 1
  Multiplicity = 1
  Electrons    = 102
  Nalpha       = 51
  Nbeta        = 51

  ==> Algorithm <==

  SCF Algorithm Type is DF.
  DIIS enabled.
  MOM disabled.
  Fractional occupation disabled.
  Guess Type is SAD.
  Energy threshold   = 1.00e-10
  Density threshold  = 1.00e-10
  Integral threshold = 1.00e-12

  ==> Primary Basis <==

  Basis Set: CC-PVDZ
    Blend: CC-PVDZ
    Number of shells: 122
    Number of basis functions: 256
    Number of Cartesian functions: 269
    Spherical Harmonics?: true
    Max angular momentum: 2

   => Loading Basis Set <=

    Name: (CC-PVDZ AUX)
    Role: JKFIT
    Keyword: DF_BASIS_SCF
    atoms 1-12         entry C          line   121 file /home/maxbuskirk/.conda/envs/psifour/share/psi4/basis/cc-pvdz-jkfit.gbs 
    atoms 13-21, 23-27 entry H          line    51 file /home/maxbuskirk/.conda/envs/psifour/share/psi4/basis/cc-pvdz-jkfit.gbs 
    atoms 22           entry CL         line   667 file /home/maxbuskirk/.conda/envs/psifour/share/psi4/basis/cc-pvdz-jkfit.gbs 

  ==> Integral Setup <==

  DFHelper Memory: AOs need 0.577 GiB; user supplied 22.352 GiB. Using in-core AOs.

  ==> MemDFJK: Density-Fitted J/K Matrices <==

    J tasked:                   Yes
    K tasked:                   Yes
    wK tasked:                   No
    OpenMP threads:               1
    Memory [MiB]:             22888
    Algorithm:                 Core
    Schwarz Cutoff:           1E-12
    Mask sparsity (%):      10.9253
    Fitting Condition:        1E-10

   => Auxiliary Basis Set <=

  Basis Set: (CC-PVDZ AUX)
    Blend: CC-PVDZ-JKFIT
    Number of shells: 450
    Number of basis functions: 1274
    Number of Cartesian functions: 1452
    Spherical Harmonics?: true
    Max angular momentum: 3

  Minimum eigenvalue in the overlap matrix is 3.0452272226E-04.
  Reciprocal condition number of the overlap matrix is 4.3239954398E-05.
    Using symmetric orthogonalization.

  ==> Pre-Iterations <==

  SCF Guess: Superposition of Atomic Densities via on-the-fly atomic UHF (no occupation information).

   -------------------------
    Irrep   Nso     Nmo    
   -------------------------
     A        256     256 
   -------------------------
    Total     256     256
   -------------------------

  ==> Iterations <==

                           Total Energy        Delta E     RMS |[F,P]|

   @DF-RHF iter SAD:  -922.14084417598667   -9.22141e+02   0.00000e+00 
   @DF-RHF iter   1:  -921.44027932246695    7.00565e-01   2.27383e-03 DIIS
   @DF-RHF iter   2:  -921.65422573610545   -2.13946e-01   1.02680e-03 DIIS
   @DF-RHF iter   3:  -921.69104377829569   -3.68180e-02   2.98639e-04 DIIS
   @DF-RHF iter   4:  -921.69538613252780   -4.34235e-03   1.07512e-04 DIIS
   @DF-RHF iter   5:  -921.69586149774955   -4.75365e-04   2.91649e-05 DIIS
   @DF-RHF iter   6:  -921.69591302157130   -5.15238e-05   9.33788e-06 DIIS
   @DF-RHF iter   7:  -921.69592032185585   -7.30028e-06   3.59261e-06 DIIS
   @DF-RHF iter   8:  -921.69592154997940   -1.22812e-06   1.59323e-06 DIIS
   @DF-RHF iter   9:  -921.69592184777741   -2.97798e-07   6.38840e-07 DIIS
   @DF-RHF iter  10:  -921.69592190533979   -5.75624e-08   3.06490e-07 DIIS
   @DF-RHF iter  11:  -921.69592192291941   -1.75796e-08   1.41747e-07 DIIS
   @DF-RHF iter  12:  -921.69592192627078   -3.35137e-09   4.61659e-08 DIIS
   @DF-RHF iter  13:  -921.69592192658820   -3.17414e-10   1.71975e-08 DIIS
   @DF-RHF iter  14:  -921.69592192662367   -3.54703e-11   5.92056e-09 DIIS
   @DF-RHF iter  15:  -921.69592192662606   -2.38742e-12   2.04044e-09 DIIS
   @DF-RHF iter  16:  -921.69592192662628   -2.27374e-13   7.07000e-10 DIIS
   @DF-RHF iter  17:  -921.69592192662753   -1.25056e-12   2.50322e-10 DIIS
   @DF-RHF iter  18:  -921.69592192662731    2.27374e-13   8.63753e-11 DIIS
  Energy and wave function converged.


  ==> Post-Iterations <==

    Orbital Energies [Eh]
    ---------------------

    Doubly Occupied:                                                      

       1A   -104.933531     2A    -11.497291     3A    -11.471079  
       4A    -11.443708     5A    -11.424645     6A    -11.398559  
       7A    -11.395087     8A    -11.394849     9A    -11.387464  
      10A    -11.383348    11A    -11.380522    12A    -11.377301  
      13A    -11.376505    14A    -10.660112    15A     -8.127743  
      16A     -8.124116    17A     -8.124059    18A     -1.401878  
      19A     -1.300968    20A     -1.236674    21A     -1.230174  
      22A     -1.153644    23A     -1.148952    24A     -1.134668  
      25A     -1.093871    26A     -0.971788    27A     -0.968378  
      28A     -0.963084    29A     -0.917569    30A     -0.878912  
      31A     -0.852297    32A     -0.796687    33A     -0.780885  
      34A     -0.773108    35A     -0.760587    36A     -0.753035  
      37A     -0.724667    38A     -0.717095    39A     -0.680557  
      40A     -0.673092    41A     -0.653479    42A     -0.646583  
      43A     -0.643144    44A     -0.635551    45A     -0.625439  
      46A     -0.622515    47A     -0.591795    48A     -0.567543  
      49A     -0.550897    50A     -0.468866    51A     -0.447162  

    Virtual:                                                              

      52A     -0.132523    53A     -0.017977    54A     -0.008783  
      55A     -0.003840    56A      0.021778    57A      0.046179  
      58A      0.065656    59A      0.071956    60A      0.088367  
      61A      0.095815    62A      0.110412    63A      0.115768  
      64A      0.121092    65A      0.136109    66A      0.137270  
      67A      0.147620    68A      0.154369    69A      0.167628  
      70A      0.185638    71A      0.204073    72A      0.214336  
      73A      0.221060    74A      0.254275    75A      0.260414  
      76A      0.294900    77A      0.311965    78A      0.321982  
      79A      0.335176    80A      0.346823    81A      0.359064  
      82A      0.399986    83A      0.426591    84A      0.448416  
      85A      0.462817    86A      0.486495    87A      0.497613  
      88A      0.507559    89A      0.512985    90A      0.517641  
      91A      0.527549    92A      0.537537    93A      0.560810  
      94A      0.566824    95A      0.573143    96A      0.581347  
      97A      0.587259    98A      0.596383    99A      0.608801  
     100A      0.610477   101A      0.612820   102A      0.623204  
     103A      0.640054   104A      0.649809   105A      0.657521  
     106A      0.671067   107A      0.676843   108A      0.684906  
     109A      0.690059   110A      0.696651   111A      0.699805  
     112A      0.707511   113A      0.715776   114A      0.722932  
     115A      0.735006   116A      0.745431   117A      0.748110  
     118A      0.752849   119A      0.762926   120A      0.771339  
     121A      0.786285   122A      0.788782   123A      0.792680  
     124A      0.795527   125A      0.800522   126A      0.821144  
     127A      0.832630   128A      0.847620   129A      0.868646  
     130A      0.879453   131A      0.886718   132A      0.899553  
     133A      0.953757   134A      0.973548   135A      0.988200  
     136A      1.009891   137A      1.013913   138A      1.025673  
     139A      1.039533   140A      1.066439   141A      1.083008  
     142A      1.091467   143A      1.106369   144A      1.108272  
     145A      1.137700   146A      1.146599   147A      1.174081  
     148A      1.176231   149A      1.195522   150A      1.215504  
     151A      1.228771   152A      1.262899   153A      1.267131  
     154A      1.293985   155A      1.299469   156A      1.319774  
     157A      1.349592   158A      1.361164   159A      1.368229  
     160A      1.388129   161A      1.419489   162A      1.431169  
     163A      1.451630   164A      1.474394   165A      1.493533  
     166A      1.517656   167A      1.548307   168A      1.556509  
     169A      1.560133   170A      1.585184   171A      1.601541  
     172A      1.622044   173A      1.629687   174A      1.645767  
     175A      1.660030   176A      1.677738   177A      1.687685  
     178A      1.694146   179A      1.697135   180A      1.730350  
     181A      1.739557   182A      1.751603   183A      1.765066  
     184A      1.770448   185A      1.777379   186A      1.781594  
     187A      1.795759   188A      1.796982   189A      1.806809  
     190A      1.814310   191A      1.821368   192A      1.834096  
     193A      1.845801   194A      1.857411   195A      1.866354  
     196A      1.884205   197A      1.887386   198A      1.896913  
     199A      1.907605   200A      1.925014   201A      1.932947  
     202A      1.936099   203A      1.945283   204A      1.959688  
     205A      1.967454   206A      2.001526   207A      2.010763  
     208A      2.025974   209A      2.052716   210A      2.054772  
     211A      2.070277   212A      2.083848   213A      2.087806  
     214A      2.110933   215A      2.121433   216A      2.131036  
     217A      2.138947   218A      2.171721   219A      2.191907  
     220A      2.210264   221A      2.230871   222A      2.255336  
     223A      2.266831   224A      2.274480   225A      2.292737  
     226A      2.306488   227A      2.311862   228A      2.326725  
     229A      2.359929   230A      2.380788   231A      2.435232  
     232A      2.436527   233A      2.494262   234A      2.511963  
     235A      2.527223   236A      2.553403   237A      2.588843  
     238A      2.603542   239A      2.611637   240A      2.625361  
     241A      2.631754   242A      2.640218   243A      2.699365  
     244A      2.711927   245A      2.751990   246A      2.780068  
     247A      2.812512   248A      2.827658   249A      2.844643  
     250A      2.874724   251A      2.890083   252A      2.919755  
     253A      2.982880   254A      3.059907   255A      3.113533  
     256A      3.626931  

    Final Occupation by Irrep:
              A 
    DOCC [    51 ]

  @DF-RHF Final Energy:  -921.69592192662731

   => Energetics <=

    Nuclear Repulsion Energy =            843.9380906632042070
    One-Electron Energy =               -2920.7370974900431975
    Two-Electron Energy =                1155.1030849002117975
    Total Energy =                       -921.6959219266273067

Computation Completed


Properties will be evaluated at   0.000000,   0.000000,   0.000000 [a0]

Properties computed using the SCF density matrix

  Nuclear Dipole Moment: [e a0]
     X:   -24.4043      Y:    -0.4816      Z:    15.5618

  Electronic Dipole Moment: [e a0]
     X:    19.5179      Y:     1.1412      Z:   -14.3039

  Dipole Moment: [e a0]
     X:    -4.8864      Y:     0.6595      Z:     1.2579     Total:     5.0887

  Dipole Moment: [D]
     X:   -12.4201      Y:     1.6764      Z:     3.1973     Total:    12.9341


*** tstop() called on skystd39.palmetto.clemson.edu at Thu Oct 14 16:21:36 2021
Module time:
	user time   =      14.27 seconds =       0.24 minutes
	system time =       0.72 seconds =       0.01 minutes
	total time  =         15 seconds =       0.25 minutes
Total time:
	user time   =      14.27 seconds =       0.24 minutes
	system time =       0.72 seconds =       0.01 minutes
	total time  =         15 seconds =       0.25 minutes

*** tstart() called on skystd39.palmetto.clemson.edu
*** at Thu Oct 14 16:21:36 2021


  //>>>>>>>>>>>>>>>>>>>>>>>>>>>>>>>>>>>//
  //               DFMP2               //
  //<<<<<<<<<<<<<<<<<<<<<<<<<<<<<<<<<<<//

   => Loading Basis Set <=

    Name: (CC-PVDZ AUX)
    Role: RIFIT
    Keyword: DF_BASIS_MP2
    atoms 1-12         entry C          line   159 file /home/maxbuskirk/.conda/envs/psifour/share/psi4/basis/cc-pvdz-ri.gbs 
    atoms 13-21, 23-27 entry H          line    19 file /home/maxbuskirk/.conda/envs/psifour/share/psi4/basis/cc-pvdz-ri.gbs 
    atoms 22           entry CL         line   649 file /home/maxbuskirk/.conda/envs/psifour/share/psi4/basis/cc-pvdz-ri.gbs 

	 --------------------------------------------------------
	                          DF-MP2                         
	      2nd-Order Density-Fitted Moller-Plesset Theory     
	              RMP2 Wavefunction,   1 Threads             
	                                                         
	        Rob Parrish, Justin Turney, Andy Simmonett,      
	           Ed Hohenstein, and C. David Sherrill          
	 --------------------------------------------------------

   => Auxiliary Basis Set <=

  Basis Set: (CC-PVDZ AUX)
    Blend: CC-PVDZ-RI
    Number of shells: 324
    Number of basis functions: 944
    Number of Cartesian functions: 1092
    Spherical Harmonics?: true
    Max angular momentum: 3

	 --------------------------------------------------------
	                 NBF =   256, NAUX =   944
	 --------------------------------------------------------
	   CLASS    FOCC     OCC    AOCC    AVIR     VIR    FVIR
	   PAIRS       0      51      51     205     205       0
	 --------------------------------------------------------

  DFHelper Memory: AOs need 0.577 GiB; user supplied 22.352 GiB. Using in-core AOs.


         ------------------------------------------------------------
                                     CPHF                           
                                  Rob Parrish                       
         ------------------------------------------------------------

  ==> Geometry <==

    Molecular point group: c1
    Full point group: C1

    Geometry (in Angstrom), charge = 1, multiplicity = 1:

       Center              X                  Y                   Z               Mass       
    ------------   -----------------  -----------------  -----------------  -----------------
         C           -0.387643259343    -0.014556295077    -1.436128155625    12.000000000000
         C           -0.387643259343    -0.014556295077    -0.027969155625    12.000000000000
         C            0.850746740657    -0.014556295077     0.647811844375    12.000000000000
         C            2.058527740657    -0.011885295077    -0.065613155625    12.000000000000
         C            2.045745740657    -0.007572295077    -1.471033155625    12.000000000000
         C            0.819315740657    -0.008151295077    -2.154472155625    12.000000000000
         C           -1.660418259343    -0.060501295077     0.751236844375    12.000000000000
         C           -2.016090259343    -1.350322295077     1.514513844375    12.000000000000
         C           -2.125022259343    -0.914137295077     2.988992844375    12.000000000000
         C           -2.686527259343     0.521478704923     2.931836844375    12.000000000000
         C           -2.102568259343     1.102522704923     1.644245844375    12.000000000000
         C           -2.834710259343     0.806488704923     0.349760844375    12.000000000000
         H           -1.492852259343     2.010209704923     1.681302844375     1.007825032230
         H           -2.398612259343     1.115002704923     3.814086844375     1.007825032230
         H           -3.790548259343     0.508571704923     2.891866844375     1.007825032230
         H           -1.110365259343    -0.881088295077     3.424238844375     1.007825032230
         H           -2.731335259343    -1.599409295077     3.605345844375     1.007825032230
         H           -1.247089259343    -2.123806295077     1.361068844375     1.007825032230
         H           -2.976218259343    -1.761772295077     1.153953844375     1.007825032230
         H           -1.343810259343    -0.022806295077    -1.969262155625     1.007825032230
         H            0.802086740657    -0.005834295077    -3.248756155625     1.007825032230
         CL           3.542160740657     0.002969704923    -2.358856155625    34.968852682000
         H            3.010818740657    -0.006294295077     0.473698844375     1.007825032230
         H            0.860484740657    -0.004735295077     1.743314844375     1.007825032230
         H           -2.684828259343     1.505570704923    -0.477865155625     1.007825032230
         H           -3.838404259343     0.373985704923     0.421335844375     1.007825032230
         H           -3.632542259343     0.381538704923    -0.577904155625     1.007825032230

  Nuclear repulsion =  843.938090663204207
  Reference energy  = -921.695921926627307

  ==> Basis Set <==

  Basis Set: CC-PVDZ
    Blend: CC-PVDZ
    Number of shells: 122
    Number of basis functions: 256
    Number of Cartesian functions: 269
    Spherical Harmonics?: true
    Max angular momentum: 2

  ==> CGRSolver (by Rob Parrish) <==

   Number of roots    =         1
   Preconditioning    =    JACOBI
   Convergence cutoff =     1E-06
   Maximum iterations =       100

  ==> CPHFRHamiltonian (by Rob Parrish) <== 

  ==> MemDFJK: Density-Fitted J/K Matrices <==

    J tasked:                   Yes
    K tasked:                   Yes
    wK tasked:                   No
    OpenMP threads:               1
    Memory [MiB]:             22888
    Algorithm:                 Core
    Schwarz Cutoff:           1E-12
    Mask sparsity (%):      10.9253
    Fitting Condition:        1E-10

   => Auxiliary Basis Set <=

  Basis Set: (CC-PVDZ AUX)
    Blend: CC-PVDZ-JKFIT
    Number of shells: 450
    Number of basis functions: 1274
    Number of Cartesian functions: 1452
    Spherical Harmonics?: true
    Max angular momentum: 3

  ==> CPHF Iterations <==

  => Iterations <=

             Iter  Converged  Remaining    Residual
  CGR           1          0          1   8.881E-02
  CGR           2          0          1   1.767E-02
  CGR           3          0          1   8.636E-03
  CGR           4          0          1   3.265E-03
  CGR           5          0          1   1.589E-03
  CGR           6          0          1   7.355E-04
  CGR           7          0          1   3.072E-04
  CGR           8          0          1   1.053E-04
  CGR           9          0          1   4.532E-05
  CGR          10          0          1   1.481E-05
  CGR          11          0          1   5.291E-06
  CGR          12          0          1   1.762E-06
  CGR          13          1          0   5.128E-07

    CGRSolver converged.

  ==> DFCorrGrad: Density-Fitted Correlated Gradients <==

    OpenMP threads:              1
    Integrals threads:           1
    Memory [GiB]:           22.352
    Schwarz Cutoff:          0E+00
    Fitting Condition:       1E-10

   => Auxiliary Basis Set <=

  Basis Set: (CC-PVDZ AUX)
    Blend: CC-PVDZ-JKFIT
    Number of shells: 450
    Number of basis functions: 1274
    Number of Cartesian functions: 1452
    Spherical Harmonics?: true
    Max angular momentum: 3

	-----------------------------------------------------------
	 ==================> DF-MP2 Energies <==================== 
	-----------------------------------------------------------
	 Reference Energy          =    -921.6959219266273067 [Eh]
	 Singles Energy            =      -0.0000000000000000 [Eh]
	 Same-Spin Energy          =      -0.4754318608485117 [Eh]
	 Opposite-Spin Energy      =      -1.3248705078924774 [Eh]
	 Correlation Energy        =      -1.8003023687409891 [Eh]
	 Total Energy              =    -923.4962242953682789 [Eh]
	-----------------------------------------------------------
	 ================> DF-SCS-MP2 Energies <================== 
	-----------------------------------------------------------
	 SCS Same-Spin Scale       =       0.3333333333333333 [-]
	 SCS Opposite-Spin Scale   =       1.2000000000000000 [-]
	 SCS Same-Spin Energy      =      -0.1584772869495039 [Eh]
	 SCS Opposite-Spin Energy  =      -1.5898446094709728 [Eh]
	 SCS Correlation Energy    =      -1.7483218964204768 [Eh]
	 SCS Total Energy          =    -923.4442438230478274 [Eh]
	-----------------------------------------------------------


  -Total Gradient:
     Atom            X                  Y                   Z
    ------   -----------------  -----------------  -----------------
       1       -0.001715859281    -0.000400211712    -0.003682338547
       2       -0.000262620817    -0.004955411982     0.007201471001
       3        0.002363859902    -0.000665395975    -0.000484890613
       4       -0.001359532516     0.000012391843    -0.004807347944
       5        0.000002791254     0.000123356063     0.000415969873
       6        0.003662187691     0.000240725546     0.005449933429
       7       -0.007476637016    -0.001029018525    -0.007245499687
       8        0.005747226627     0.000901989576    -0.003255469198
       9       -0.002266913116    -0.000027049919     0.000417728060
      10        0.006016099424     0.002402968606    -0.004607592085
      11       -0.013109667701     0.017577795538    -0.030731908769
      12       -0.017289711803     0.010136320397     0.079869748374
      13        0.008127224091    -0.006657383454     0.007712342640
      14        0.000393341637    -0.001445332835     0.002837066315
      15       -0.001230396598    -0.001835306197    -0.001284764702
      16        0.000855946043     0.000477432232     0.000097373533
      17       -0.000569609691    -0.001878525312     0.001075267096
      18        0.001122935729    -0.002270690050     0.002271645071
      19        0.000380557968     0.001916823909     0.000152977966
      20       -0.001041131472     0.000494440574     0.003565462121
      21       -0.000832119257     0.000001953584    -0.000997810786
      22        0.005378627043     0.000036891516    -0.003121801028
      23        0.000659540760     0.000031254181     0.001010780608
      24       -0.002267061163     0.000379796827    -0.000042940403
      25       -0.005512533981    -0.018890433314    -0.000541222254
      26        0.046080472296     0.006304822986    -0.030093180493
      27       -0.025857016074    -0.000984204106    -0.021180999580


*** tstop() called on skystd39.palmetto.clemson.edu at Thu Oct 14 16:22:43 2021
Module time:
	user time   =      64.01 seconds =       1.07 minutes
	system time =       3.24 seconds =       0.05 minutes
	total time  =         67 seconds =       1.12 minutes
Total time:
	user time   =      78.28 seconds =       1.30 minutes
	system time =       3.96 seconds =       0.07 minutes
	total time  =         82 seconds =       1.37 minutes

			-----------------------------------------
			 OPTKING 2.0: for geometry optimizations 
			  - R.A. King,  Bethel University        
			-----------------------------------------

	Internal coordinates to be generated automatically.
	Detected frag 1 with atoms:  1 2 3 4 5 6 7 8 9 10 11 12 13 14 15 16 17 18 19 20
	 21 22 23 24 25 26 27
	---Fragment 1 Bond Connectivity---
	 1 : 2 6 20
	 2 : 1 3 7
	 3 : 2 4 24
	 4 : 3 5 23
	 5 : 4 6 22
	 6 : 1 5 21
	 7 : 2 8 11 12
	 8 : 7 9 18 19
	 9 : 8 10 16 17
	 10 : 9 11 14 15
	 11 : 7 10 12 13
	 12 : 7 11 25 26 27
	 13 : 11
	 14 : 10
	 15 : 10
	 16 : 9
	 17 : 9
	 18 : 8
	 19 : 8
	 20 : 1
	 21 : 6
	 22 : 5
	 23 : 4
	 24 : 3
	 25 : 12
	 26 : 12
	 27 : 12

	---Fragment 1 Geometry and Gradient---
	 C          -0.7325395945       -0.0275074111       -2.7138888952
	 C          -0.7325395945       -0.0275074111       -0.0528540441
	 C           1.6076783420       -0.0275074111        1.2241869667
	 C           3.8900536515       -0.0224599526       -0.1239908944
	 C           3.8658991722       -0.0143095638       -2.7798497856
	 C           1.5482823601       -0.0154037153       -4.0713623191
	 C          -3.1377357639       -0.1143308779        1.4196318912
	 C          -3.8098584344       -2.5517393188        2.8620163791
	 C          -4.0157100807       -1.7274691288        5.6483778668
	 C          -5.0768007487        0.9854519326        5.5403686804
	 C          -3.9732781702        2.0834659594        3.1071743288
	 C          -5.3568260352        1.5240427756        0.6609522053
	 H          -2.8210819159        3.7987457970        3.1772019098
	 H          -4.5327202513        2.1070497414        7.2075795546
	 H          -7.1630980755        0.9610612375        5.4648363272
	 H          -2.0982862394       -1.6650155700        6.4708736040
	 H          -5.1614755970       -3.0224455302        6.8131162334
	 H          -2.3566571542       -4.0134122412        2.5720473538
	 H          -5.6242373997       -3.3292671331        2.1806567273
	 H          -2.5394333547       -0.0430976516       -3.7213661434
	 H           1.5157242687       -0.0110252198       -6.1392593825
	 CL          6.6937136922        0.0056119290       -4.4575921035
	 H           5.6896228332       -0.0118944938        0.8951610818
	 H           1.6260804950       -0.0089484108        3.2943876063
	 H          -5.0735901040        2.8451162948       -0.9030342690
	 H          -7.2535328089        0.7067305571        0.7962093527
	 H          -6.8645100093        0.7210036586       -1.0920805809
	            -0.0017158593       -0.0004002117       -0.0036823385
	            -0.0002626208       -0.0049554120        0.0072014710
	             0.0023638599       -0.0006653960       -0.0004848906
	            -0.0013595325        0.0000123918       -0.0048073479
	             0.0000027913        0.0001233561        0.0004159699
	             0.0036621877        0.0002407255        0.0054499334
	            -0.0074766370       -0.0010290185       -0.0072454997
	             0.0057472266        0.0009019896       -0.0032554692
	            -0.0022669131       -0.0000270499        0.0004177281
	             0.0060160994        0.0024029686       -0.0046075921
	            -0.0131096677        0.0175777955       -0.0307319088
	            -0.0172897118        0.0101363204        0.0798697484
	             0.0081272241       -0.0066573835        0.0077123426
	             0.0003933416       -0.0014453328        0.0028370663
	            -0.0012303966       -0.0018353062       -0.0012847647
	             0.0008559460        0.0004774322        0.0000973735
	            -0.0005696097       -0.0018785253        0.0010752671
	             0.0011229357       -0.0022706901        0.0022716451
	             0.0003805580        0.0019168239        0.0001529780
	            -0.0010411315        0.0004944406        0.0035654621
	            -0.0008321193        0.0000019536       -0.0009978108
	             0.0053786270        0.0000368915       -0.0031218010
	             0.0006595408        0.0000312542        0.0010107806
	            -0.0022670612        0.0003797968       -0.0000429404
	            -0.0055125340       -0.0188904333       -0.0005412223
	             0.0460804723        0.0063048230       -0.0300931805
	            -0.0258570161       -0.0009842041       -0.0211809996

	Previous optimization step data not found.  Starting new optimization.

	---Fragment 1 Intrafragment Coordinates---
	 - Coordinate -           - BOHR/RAD -       - ANG/DEG -
	 R(1,2)           =         2.661035	       1.408159
	 R(1,6)           =         2.654247	       1.404567
	 R(1,20)          =         2.068845	       1.094785
	 R(2,3)           =         2.665981	       1.410776
	 R(2,7)           =         2.821475	       1.493060
	 R(3,4)           =         2.650820	       1.402753
	 R(3,24)          =         2.070366	       1.095590
	 R(4,5)           =         2.655981	       1.405485
	 R(4,23)          =         2.068147	       1.094416
	 R(5,6)           =         2.653178	       1.404001
	 R(5,22)          =         3.288123	       1.740000
	 R(6,21)          =         2.068158	       1.094422
	 R(7,8)           =         2.910873	       1.540368
	 R(7,11)          =         2.894174	       1.531531
	 R(7,12)          =         2.860808	       1.513875
	 R(8,9)           =         2.913006	       1.541497
	 R(8,18)          =         2.081433	       1.101447
	 R(8,19)          =         2.088246	       1.105052
	 R(9,10)          =         2.915051	       1.542578
	 R(9,16)          =         2.087322	       1.104563
	 R(9,17)          =         2.084792	       1.103224
	 R(10,11)         =         2.888569	       1.528565
	 R(10,14)         =         2.081729	       1.101604
	 R(10,15)         =         2.087807	       1.104820
	 R(11,12)         =         2.865512	       1.516364
	 R(11,13)         =         2.067521	       1.094085
	 R(12,25)         =         2.066764	       1.093684
	 R(12,26)         =         2.069732	       1.095255
	 R(12,27)         =         2.447674	       1.295253
	 B(1,2,3)         =         2.070327	     118.620997
	 B(1,2,7)         =         2.119856	     121.458788
	 B(1,6,5)         =         2.096330	     120.110874
	 B(1,6,21)        =         2.091916	     119.857977
	 B(2,1,6)         =         2.107650	     120.759421
	 B(2,1,20)        =         2.079420	     119.142001
	 B(2,3,4)         =         2.108515	     120.808990
	 B(2,3,24)        =         2.079193	     119.129007
	 B(2,7,8)         =         2.072823	     118.764025
	 B(2,7,11)        =         2.125907	     121.805526
	 B(2,7,12)        =         2.100429	     120.345701
	 B(3,2,7)         =         2.092440	     119.888000
	 B(3,4,5)         =         2.095251	     120.049043
	 B(3,4,23)        =         2.092754	     119.905975
	 B(4,3,24)        =         2.095410	     120.058136
	 B(4,5,6)         =         2.088286	     119.649965
	 B(4,5,22)        =         2.097188	     120.160041
	 B(5,4,23)        =         2.095157	     120.043679
	 B(5,6,21)        =         2.094936	     120.031012
	 B(6,1,20)        =         2.096111	     120.098304
	 B(6,5,22)        =         2.097707	     120.189770
	 B(7,8,9)         =         1.826941	     104.676012
	 B(7,8,18)        =         1.936687	     110.963967
	 B(7,8,19)        =         1.929130	     110.530980
	 B(7,11,10)       =         1.888927	     108.227565
	 B(7,11,12)       =         1.039531	      59.560711
	 B(7,11,13)       =         2.081594	     119.266540
	 B(7,12,11)       =         1.059727	      60.717866
	 B(7,12,25)       =         2.049296	     117.416011
	 B(7,12,26)       =         2.057098	     117.863016
	 B(7,12,27)       =         2.071269	     118.674982
	 B(8,7,11)        =         1.854884	     106.277040
	 B(8,7,12)        =         2.017337	     115.584897
	 B(8,9,10)        =         1.827220	     104.692002
	 B(8,9,16)        =         1.897016	     108.690991
	 B(8,9,17)        =         1.979552	     113.419998
	 B(9,8,18)        =         1.962000	     112.414302
	 B(9,8,19)        =         1.934840	     110.858171
	 B(9,10,11)       =         1.819261	     104.235991
	 B(9,10,14)       =         1.956933	     112.123993
	 B(9,10,15)       =         1.932865	     110.744982
	 B(10,9,16)       =         1.897719	     108.731301
	 B(10,9,17)       =         1.980931	     113.498999
	 B(10,11,12)      =         2.049278	     117.414996
	 B(10,11,13)      =         2.094085	     119.982231
	 B(11,7,12)       =         1.042335	      59.721423
	 B(11,10,14)      =         1.949773	     111.713789
	 B(11,10,15)      =         1.934482	     110.837637
	 B(11,12,25)      =         2.043223	     117.068036
	 B(11,12,26)      =         2.053041	     117.630561
	 B(11,12,27)      =         2.908091	     166.621351
	 B(12,11,13)      =         2.048737	     117.384004
	 B(14,10,15)      =         1.871758	     107.243861
	 B(16,9,17)       =         1.878939	     107.655246
	 B(18,8,19)       =         1.875159	     107.438672
	 B(25,12,26)      =         2.012468	     115.305919
	 B(25,12,27)      =         1.320336	      75.649663
	 B(26,12,27)      =         0.866858	      49.667332
	 D(1,2,3,4)       =         0.002217	       0.127023
	 D(1,2,3,24)      =         3.131330	     179.412021
	 D(1,2,7,8)       =         1.903733	     109.075866
	 D(1,2,7,11)      =        -2.009659	    -115.144974
	 D(1,2,7,12)      =        -0.769268	     -44.075804
	 D(1,6,5,4)       =        -0.001267	      -0.072568
	 D(1,6,5,22)      =        -3.139856	    -179.900470
	 D(2,1,6,5)       =         0.004882	       0.279712
	 D(2,1,6,21)      =        -3.139055	    -179.854616
	 D(2,3,4,5)       =         0.001308	       0.074953
	 D(2,3,4,23)      =         3.135659	     179.660022
	 D(2,7,8,9)       =         2.100957	     120.375986
	 D(2,7,8,18)      =        -0.019556	      -1.120483
	 D(2,7,8,19)      =        -2.098069	    -120.210485
	 D(2,7,11,10)     =        -2.431542	    -139.317107
	 D(2,7,11,12)     =         1.903192	     109.044880
	 D(2,7,11,13)     =         0.046268	       2.650975
	 D(2,7,12,11)     =        -1.944837	    -111.430950
	 D(2,7,12,25)     =        -0.072649	      -4.162498
	 D(2,7,12,26)     =         2.457625	     140.811515
	 D(2,7,12,27)     =         1.463589	      83.857495
	 D(3,2,1,6)       =        -0.005307	      -0.304050
	 D(3,2,1,20)      =         3.132965	     179.505653
	 D(3,2,7,8)       =        -1.201327	     -68.830973
	 D(3,2,7,11)      =         1.168466	      66.948187
	 D(3,2,7,12)      =         2.408857	     138.017357
	 D(3,4,5,6)       =        -0.001797	      -0.102948
	 D(3,4,5,22)      =         3.136793	     179.725006
	 D(4,3,2,7)       =         3.108309	     178.093004
	 D(4,5,6,21)      =        -3.140511	    -179.938005
	 D(5,4,3,24)      =        -3.127690	    -179.203428
	 D(5,6,1,20)      =        -3.133358	    -179.528176
	 D(6,1,2,7)       =        -3.110817	    -178.236668
	 D(6,5,4,23)      =        -3.136137	    -179.687441
	 D(7,2,1,20)      =         0.027455	       1.573035
	 D(7,2,3,24)      =        -0.045763	      -2.621999
	 D(7,8,9,10)      =         0.589415	      33.771009
	 D(7,8,9,16)      =        -1.436057	     -82.280006
	 D(7,8,9,17)      =         2.757969	     158.020011
	 D(7,11,10,9)     =         0.342649	      19.632339
	 D(7,11,10,14)    =         2.459421	     140.914464
	 D(7,11,10,15)    =        -1.737453	     -99.548724
	 D(7,11,12,25)    =        -1.882074	    -107.834882
	 D(7,11,12,26)    =         1.887313	     108.135088
	 D(7,11,12,27)    =         1.590634	      91.136609
	 D(7,12,11,10)    =        -1.674893	     -95.964286
	 D(7,12,11,13)    =         1.911554	     109.524001
	 D(8,7,11,10)     =         0.019582	       1.121989
	 D(8,7,11,12)     =        -1.928869	    -110.516024
	 D(8,7,11,13)     =         2.497393	     143.090070
	 D(8,7,12,11)     =         1.651178	      94.605518
	 D(8,7,12,25)     =        -2.759820	    -158.126030
	 D(8,7,12,26)     =        -0.229546	     -13.152017
	 D(8,7,12,27)     =        -1.223581	     -70.106038
	 D(8,9,10,11)     =        -0.573603	     -32.865004
	 D(8,9,10,14)     =        -2.685608	    -153.873999
	 D(8,9,10,15)     =         1.507597	      86.378974
	 D(9,8,7,11)      =        -0.375138	     -21.493819
	 D(9,8,7,12)      =        -1.487483	     -85.226516
	 D(9,10,11,12)    =         1.468886	      84.160990
	 D(9,10,11,13)    =        -2.129574	    -122.015576
	 D(10,9,8,18)     =         2.693184	     154.308062
	 D(10,9,8,19)     =        -1.490900	     -85.422298
	 D(10,11,7,12)    =         1.948451	     111.638013
	 D(10,11,12,25)   =         2.726219	     156.200832
	 D(10,11,12,26)   =         0.212421	      12.170802
	 D(10,11,12,27)   =        -0.084259	      -4.827677
	 D(11,7,8,18)     =        -2.495651	    -142.990288
	 D(11,7,8,19)     =         1.709021	      97.919710
	 D(11,7,12,25)    =         1.872188	     107.268451
	 D(11,7,12,26)    =        -1.880724	    -107.757535
	 D(11,7,12,27)    =        -2.874759	    -164.711556
	 D(11,10,9,16)    =         1.451382	      83.158064
	 D(11,10,9,17)    =        -2.741277	    -157.063604
	 D(12,7,8,18)     =         2.675189	     153.277015
	 D(12,7,8,19)     =         0.596676	      34.187013
	 D(12,7,11,13)    =        -1.856924	    -106.393905
	 D(12,11,10,14)   =        -2.697527	    -154.556885
	 D(12,11,10,15)   =        -0.611216	     -35.020073
	 D(13,11,10,14)   =        -0.012801	      -0.733451
	 D(13,11,10,15)   =         2.073510	     118.803361
	 D(13,11,12,25)   =         0.029481	       1.689118
	 D(13,11,12,26)   =        -2.484318	    -142.340911
	 D(13,11,12,27)   =        -2.780997	    -159.339390
	 D(14,10,9,16)    =        -0.660623	     -37.850931
	 D(14,10,9,17)    =         1.429903	      81.927401
	 D(15,10,9,16)    =        -2.750603	    -157.597958
	 D(15,10,9,17)    =        -0.660077	     -37.819626
	 D(16,9,8,18)     =         0.667711	      38.257048
	 D(16,9,8,19)     =         2.766813	     158.526687
	 D(17,9,8,18)     =        -1.421447	     -81.442936
	 D(17,9,8,19)     =         0.677654	      38.826704
	 D(20,1,6,21)     =         0.005890	       0.337495
	 D(21,6,5,22)     =         0.004086	       0.234093
	 D(22,5,4,23)     =         0.002452	       0.140512
	 D(23,4,3,24)     =         0.006661	       0.381641

	Current energy   :      -923.4962242954

	Generating empirical Hessian (Schlegel '84) for each fragment.
	Taking PRFO optimization step.
	Maximizing along 1 lowest eigenvalue of Hessian.

 RFO min eigenvalues
 -0.027051 -0.000000 -0.000000 -0.000000 -0.000000 -0.000000 -0.000000 -0.000000
 -0.000000 -0.000000 -0.000000 -0.000000 -0.000000 -0.000000 -0.000000 -0.000000
 -0.000000 -0.000000 -0.000000 -0.000000 -0.000000 -0.000000 -0.000000 -0.000000
 -0.000000 -0.000000 -0.000000 -0.000000 -0.000000 -0.000000 -0.000000 -0.000000
 -0.000000 -0.000000 -0.000000 -0.000000 -0.000000 -0.000000 -0.000000 -0.000000
 -0.000000 -0.000000 -0.000000 -0.000000 -0.000000 -0.000000 -0.000000 -0.000000
 -0.000000 -0.000000 -0.000000 -0.000000 -0.000000 -0.000000  0.000000  0.000000
  0.000000  0.000000  0.000000  0.000000  0.000000  0.000000  0.000000  0.000000
  0.000000  0.000000  0.000000  0.000000  0.000000  0.000000  0.000000  0.000000
  0.000000  0.000000  0.000000  0.000000  0.000000  0.000000  0.000000  0.000000
  0.000000  0.000000  0.000000  0.000000  0.000000  0.000000  0.000000  0.000000
  0.000000  0.000000  0.000000  0.000000  0.000000  0.000000  0.000000  0.000000
  0.000000  0.000000  0.000000  0.000000  0.000000  0.000000  0.000000  0.000000
  0.000000  0.000000  0.000000  0.000000  0.003414  0.005492  0.005871  0.007563
  0.012380  0.012484  0.015093  0.016990  0.017273  0.017345  0.017496  0.017535
  0.017591  0.017609  0.017664  0.020711  0.027713  0.029002  0.035623  0.037902
  0.043541  0.051023  0.053980  0.058887  0.061222  0.068978  0.069871  0.070219
  0.074604  0.080373  0.084095  0.091967  0.097208  0.100157  0.105764  0.110774
  0.159991  0.159996  0.160000  0.160195  0.168124  0.192834  0.202263  0.205378
  0.220013  0.229711  0.240206  0.249889  0.249999  0.264035  0.266848  0.276430
  0.290674  0.301840  0.314866  0.331168  0.331298  0.331550  0.331826  0.333288
  0.335058  0.335233  0.341745  0.342654  0.343065  0.343072  0.343447  0.343752
  0.349274  0.407325  0.409175  0.442347  0.445146  0.448705  0.450643

 RFO max eigenvalues
 -0.000000  0.000000
	Change in coordinate exceeds step limit of    0.50000.
	Scaling displacements by    0.92885
	|RFO target step|  :        0.5000000000
	RFO gradient       :       -0.0502518591
	RFO hessian        :        0.0664905972
	Projected Delta(E) :       -0.0134516839

	Back-transformation to cartesian coordinates...
	Successfully converged to displaced geometry.

	--- Internal Coordinate Step in ANG or DEG, aJ/ANG or AJ/DEG ---
	 ---------------------------------------------------------------------------
	   Coordinate                Previous        Force       Change         New 
	   ----------                --------       ------       ------       ------
	    1 R(1,2)          =      1.408159     0.007225     0.000906     1.409065
	    2 R(1,6)          =      1.404567    -0.030613    -0.003826     1.400741
	    3 R(1,20)         =      1.094785     0.006844     0.001104     1.095890
	    4 R(2,3)          =      1.410776    -0.005389    -0.000701     1.410076
	    5 R(2,7)          =      1.493060    -0.011659    -0.001942     1.491119
	    6 R(3,4)          =      1.402753    -0.031184    -0.003898     1.398855
	    7 R(3,24)         =      1.095590     0.000492     0.000080     1.095670
	    8 R(4,5)          =      1.405485     0.006444     0.000826     1.406310
	    9 R(4,23)         =      1.094416    -0.008833    -0.001424     1.092992
	   10 R(5,6)          =      1.404001    -0.001128    -0.000137     1.403864
	   11 R(5,22)         =      1.740000    -0.051235    -0.008942     1.731057
	   12 R(6,21)         =      1.094422    -0.008328    -0.001342     1.093080
	   13 R(7,8)          =      1.540368     0.019990     0.004280     1.544648
	   14 R(7,11)         =      1.531531     0.030467     0.002487     1.534017
	   15 R(7,12)         =      1.513875    -0.002882    -0.000946     1.512928
	   16 R(8,9)          =      1.541497     0.010689     0.001231     1.542727
	   17 R(8,18)         =      1.101447    -0.016989    -0.002798     1.098649
	   18 R(8,19)         =      1.105052     0.009015     0.001501     1.106553
	   19 R(9,10)         =      1.542578    -0.006197    -0.001128     1.541451
	   20 R(9,16)         =      1.104563    -0.006912    -0.001149     1.103414
	   21 R(9,17)         =      1.103224    -0.017142    -0.002838     1.100386
	   22 R(10,11)        =      1.528565     0.010072     0.001721     1.530286
	   23 R(10,14)        =      1.101604    -0.013151    -0.002167     1.099437
	   24 R(10,15)        =      1.104820    -0.010689    -0.001778     1.103041
	   25 R(11,12)        =      1.516364     0.086899     0.019433     1.535796
	   26 R(11,13)        =      1.094085     0.006037     0.000972     1.095057
	   27 R(12,25)        =      1.093684     0.102330     0.016458     1.110142
	   28 R(12,26)        =      1.095255     0.384621     0.062157     1.157411
	   29 R(12,27)        =      1.295253    -0.258859    -0.071681     1.223572
	   30 B(1,2,3)        =    118.620997     0.000216     0.435745   119.056742
	   31 B(1,2,7)        =    121.458788     0.000105     0.306593   121.765382
	   32 B(1,6,5)        =    120.110874    -0.000250    -0.594677   119.516197
	   33 B(1,6,21)       =    119.857977     0.000189     0.626108   120.484085
	   34 B(2,1,6)        =    120.759421    -0.000030    -0.011036   120.748385
	   35 B(2,1,20)       =    119.142001     0.000300     0.999284   120.141284
	   36 B(2,3,4)        =    120.808990    -0.000120    -0.250574   120.558416
	   37 B(2,3,24)       =    119.129007     0.000239     0.730195   119.859202
	   38 B(2,7,8)        =    118.764025     0.000400     1.350232   120.114258
	   39 B(2,7,11)       =    121.805526    -0.000070     0.348676   122.154202
	   40 B(2,7,12)       =    120.345701    -0.000414    -1.819221   118.526481
	   41 B(3,2,7)        =    119.888000    -0.000322    -0.750646   119.137354
	   42 B(3,4,5)        =    120.049043    -0.000147    -0.336010   119.713033
	   43 B(3,4,23)       =    119.905975     0.000117     0.432152   120.338127
	   44 B(4,3,24)       =    120.058136    -0.000118    -0.477108   119.581028
	   45 B(4,5,6)        =    119.649965     0.000331     0.756820   120.406785
	   46 B(4,5,22)       =    120.160041    -0.000158    -0.371173   119.788868
	   47 B(5,4,23)       =    120.043679     0.000030    -0.095538   119.948141
	   48 B(5,6,21)       =    120.031012     0.000061    -0.031588   119.999425
	   49 B(6,1,20)       =    120.098304    -0.000270    -0.990773   119.107531
	   50 B(6,5,22)       =    120.189770    -0.000173    -0.385507   119.804263
	   51 B(7,8,9)        =    104.676012     0.000078     0.131956   104.807969
	   52 B(7,8,18)       =    110.963967    -0.000193    -1.122320   109.841647
	   53 B(7,8,19)       =    110.530980     0.000082     0.677929   111.208908
	   54 B(7,11,10)      =    108.227565     0.000222     0.750601   108.978165
	   55 B(7,11,12)      =     59.560711    -0.000224    -0.505860    59.054851
	   56 B(7,11,13)      =    119.266540    -0.000036     0.945013   120.211552
	   57 B(7,12,11)      =     60.717866    -0.000045    -0.303914    60.413952
	   58 B(7,12,25)      =    117.416011     0.000100     2.569114   119.985125
	   59 B(7,12,26)      =    117.863016     0.000069     2.838089   120.701105
	   60 B(7,12,27)      =    118.674982    -0.000005    -0.686284   117.988698
	   61 B(8,7,11)       =    106.277040    -0.000286    -0.904562   105.372479
	   62 B(8,7,12)       =    115.584897    -0.000016    -0.008856   115.576041
	   63 B(8,9,10)       =    104.692002     0.000080    -0.008669   104.683333
	   64 B(8,9,16)       =    108.690991    -0.000013     0.140089   108.831080
	   65 B(8,9,17)       =    113.419998    -0.000011    -0.088239   113.331759
	   66 B(9,8,18)       =    112.414302     0.000059     0.585268   112.999570
	   67 B(9,8,19)       =    110.858171    -0.000000     0.063570   110.921742
	   68 B(9,10,11)      =    104.235991    -0.000161    -0.701016   103.534975
	   69 B(9,10,14)      =    112.123993     0.000218     1.079631   113.203624
	   70 B(9,10,15)      =    110.744982     0.000044     0.540485   111.285467
	   71 B(10,9,16)      =    108.731301     0.000024     0.379094   109.110395
	   72 B(10,9,17)      =    113.498999    -0.000089    -0.437054   113.061945
	   73 B(10,11,12)     =    117.414996     0.000206     0.686547   118.101543
	   74 B(10,11,13)     =    119.982231     0.000071     1.007646   120.989876
	   75 B(11,7,12)      =     59.721423     0.000270     0.809774    60.531197
	   76 B(11,10,14)     =    111.713789    -0.000121    -0.977450   110.736339
	   77 B(11,10,15)     =    110.837637     0.000097     0.476779   111.314415
	   78 B(11,12,25)     =    117.068036    -0.000184    -1.934734   115.133302
	   79 B(11,12,26)     =    117.630561    -0.000738    -6.044640   111.585921
	   80 B(11,12,27)     =    166.621351    -0.000176    -1.821754   164.799597
	   81 B(12,11,13)     =    117.384004    -0.000322    -3.103345   114.280659
	   82 B(14,10,15)     =    107.243861    -0.000072    -0.391021   106.852840
	   83 B(16,9,17)      =    107.655246     0.000012     0.053237   107.708483
	   84 B(18,8,19)      =    107.438672    -0.000025    -0.316017   107.122655
	   85 B(25,12,26)     =    115.305919     0.000466     0.321290   115.627209
	   86 B(25,12,27)     =     75.649663     0.000348     3.598405    79.248068
	   87 B(26,12,27)     =     49.667332     0.000609     5.266102    54.933435
	   88 D(1,2,3,4)      =      0.127023    -0.000000    -0.018158     0.108866
	   89 D(1,2,3,24)     =    179.412021     0.000004     0.271794   179.683815
	   90 D(1,2,7,8)      =    109.075866    -0.000008    -1.207335   107.868531
	   91 D(1,2,7,11)     =   -115.144974    -0.000019    -0.385804  -115.530778
	   92 D(1,2,7,12)     =    -44.075804     0.000009    -0.098555   -44.174359
	   93 D(1,6,5,4)      =     -0.072568     0.000001     0.043731    -0.028837
	   94 D(1,6,5,22)     =   -179.900470    -0.000000    -0.022443  -179.922912
	   95 D(2,1,6,5)      =      0.279712    -0.000001    -0.076862     0.202851
	   96 D(2,1,6,21)     =   -179.854616    -0.000002    -0.139490  -179.994107
	   97 D(2,3,4,5)      =      0.074953    -0.000000    -0.013595     0.061358
	   98 D(2,3,4,23)     =    179.660022     0.000001     0.096990   179.757012
	   99 D(2,7,8,9)      =    120.375986    -0.000001     0.563332   120.939318
	  100 D(2,7,8,18)     =     -1.120483    -0.000005     0.388452    -0.732031
	  101 D(2,7,8,19)     =   -120.210485     0.000019     1.069174  -119.141311
	  102 D(2,7,11,10)    =   -139.317107    -0.000060    -1.663843  -140.980950
	  103 D(2,7,11,12)    =    109.044880    -0.000083    -2.024864   107.020016
	  104 D(2,7,11,13)    =      2.650975     0.000025     2.498758     5.149733
	  105 D(2,7,12,11)    =   -111.430950    -0.000043    -1.437383  -112.868332
	  106 D(2,7,12,25)    =     -4.162498    -0.000107    -5.038714    -9.201212
	  107 D(2,7,12,26)    =    140.811515     0.000172     7.409638   148.221153
	  108 D(2,7,12,27)    =     83.857495     0.000004     0.538343    84.395837
	  109 D(3,2,1,6)      =     -0.304050     0.000001     0.061837    -0.242213
	  110 D(3,2,1,20)     =    179.505653    -0.000006    -0.361957   179.143696
	  111 D(3,2,7,8)      =    -68.830973    -0.000005    -0.962642   -69.793614
	  112 D(3,2,7,11)     =     66.948187    -0.000016    -0.141111    66.807076
	  113 D(3,2,7,12)     =    138.017357     0.000011     0.146138   138.163495
	  114 D(3,4,5,6)      =     -0.102948    -0.000000     0.000581    -0.102367
	  115 D(3,4,5,22)     =    179.725006     0.000001     0.066719   179.791724
	  116 D(4,3,2,7)      =    178.093004    -0.000003    -0.257964   177.835040
	  117 D(4,5,6,21)     =   -179.938005     0.000002     0.105157  -179.832849
	  118 D(5,4,3,24)     =   -179.203428    -0.000005    -0.311339  -179.514768
	  119 D(5,6,1,20)     =   -179.528176     0.000005     0.338849  -179.189327
	  120 D(6,1,2,7)      =   -178.236668     0.000006     0.330478  -177.906190
	  121 D(6,5,4,23)     =   -179.687441    -0.000002    -0.111781  -179.799222
	  122 D(7,2,1,20)     =      1.573035    -0.000001    -0.093315     1.479719
	  123 D(7,2,3,24)     =     -2.621999     0.000001     0.031988    -2.590010
	  124 D(7,8,9,10)     =     33.771009     0.000033     1.133802    34.904811
	  125 D(7,8,9,16)     =    -82.280006     0.000019     0.636999   -81.643006
	  126 D(7,8,9,17)     =    158.020011     0.000019     0.529158   158.549169
	  127 D(7,11,10,9)    =     19.632339     0.000018     0.665611    20.297950
	  128 D(7,11,10,14)   =    140.914464     0.000041     1.015575   141.930038
	  129 D(7,11,10,15)   =    -99.548724     0.000016     0.195126   -99.353597
	  130 D(7,11,12,25)   =   -107.834882    -0.000042    -3.785275  -111.620158
	  131 D(7,11,12,26)   =    108.135088     0.000086     5.866474   114.001562
	  132 D(7,11,12,27)   =     91.136609    -0.000029    -2.935971    88.200638
	  133 D(7,12,11,10)   =    -95.964286    -0.000014    -0.333674   -96.297960
	  134 D(7,12,11,13)   =    109.524001     0.000005     2.387478   111.911479
	  135 D(8,7,11,10)    =      1.121989    -0.000012    -0.156235     0.965753
	  136 D(8,7,11,12)    =   -110.516024    -0.000035    -0.517256  -111.033281
	  137 D(8,7,11,13)    =    143.090070     0.000073     4.006365   147.096436
	  138 D(8,7,12,11)    =     94.605518    -0.000052    -0.756650    93.848868
	  139 D(8,7,12,25)    =   -158.126030    -0.000117    -4.357982  -162.484012
	  140 D(8,7,12,26)    =    -13.152017     0.000162     8.090371    -5.061646
	  141 D(8,7,12,27)    =    -70.106038    -0.000006     1.219075   -68.886962
	  142 D(8,9,10,11)    =    -32.865004    -0.000018    -0.884885   -33.749889
	  143 D(8,9,10,14)    =   -153.873999     0.000012     0.162062  -153.711937
	  144 D(8,9,10,15)    =     86.378974    -0.000008    -0.457498    85.921476
	  145 D(9,8,7,11)     =    -21.493819     0.000000    -0.461879   -21.955698
	  146 D(9,8,7,12)     =    -85.226516    -0.000043    -1.004668   -86.231184
	  147 D(9,10,11,12)   =     84.160990    -0.000013     0.491094    84.652084
	  148 D(9,10,11,13)   =   -122.015576    -0.000057    -3.506379  -125.521955
	  149 D(10,9,8,18)    =    154.308062    -0.000001     0.175026   154.483088
	  150 D(10,9,8,19)    =    -85.422298     0.000000     0.216274   -85.206024
	  151 D(10,11,7,12)   =    111.638013     0.000023     0.361021   111.999034
	  152 D(10,11,12,25)  =    156.200832    -0.000056    -4.118949   152.081883
	  153 D(10,11,12,26)  =     12.170802     0.000072     5.532801    17.703603
	  154 D(10,11,12,27)  =     -4.827677    -0.000044    -3.269645    -8.097322
	  155 D(11,7,8,18)    =   -142.990288    -0.000003    -0.636759  -143.627047
	  156 D(11,7,8,19)    =     97.919710     0.000020     0.043962    97.963672
	  157 D(11,7,12,25)   =    107.268451    -0.000064    -3.601331   103.667120
	  158 D(11,7,12,26)   =   -107.757535     0.000215     8.847021   -98.910514
	  159 D(11,7,12,27)   =   -164.711556     0.000046     1.975726  -162.735830
	  160 D(11,10,9,16)   =     83.158064    -0.000010    -0.553125    82.604938
	  161 D(11,10,9,17)   =   -157.063604    -0.000015    -0.503813  -157.567417
	  162 D(12,7,8,18)    =    153.277015    -0.000046    -1.179547   152.097467
	  163 D(12,7,8,19)    =     34.187013    -0.000023    -0.498826    33.688187
	  164 D(12,7,11,13)   =   -106.393905     0.000108     4.523622  -101.870283
	  165 D(12,11,10,14)  =   -154.556885     0.000009     0.841058  -153.715828
	  166 D(12,11,10,15)  =    -35.020073    -0.000015     0.020610   -34.999463
	  167 D(13,11,10,14)  =     -0.733451    -0.000034    -3.156416    -3.889867
	  168 D(13,11,10,15)  =    118.803361    -0.000058    -3.976864   114.826498
	  169 D(13,11,12,25)  =      1.689118    -0.000037    -1.397797     0.291321
	  170 D(13,11,12,26)  =   -142.340911     0.000091     8.253952  -134.086959
	  171 D(13,11,12,27)  =   -159.339390    -0.000024    -0.548493  -159.887884
	  172 D(14,10,9,16)   =    -37.850931     0.000020     0.493821   -37.357110
	  173 D(14,10,9,17)   =     81.927401     0.000014     0.543134    82.470535
	  174 D(15,10,9,16)   =   -157.597958     0.000001    -0.125738  -157.723696
	  175 D(15,10,9,17)   =    -37.819626    -0.000005    -0.076425   -37.896051
	  176 D(16,9,8,18)    =     38.257048    -0.000016    -0.321777    37.935271
	  177 D(16,9,8,19)    =    158.526687    -0.000014    -0.280528   158.246159
	  178 D(17,9,8,18)    =    -81.442936    -0.000015    -0.429618   -81.872554
	  179 D(17,9,8,19)    =     38.826704    -0.000014    -0.388370    38.438334
	  180 D(20,1,6,21)    =      0.337495     0.000004     0.276220     0.613716
	  181 D(21,6,5,22)    =      0.234093     0.000001     0.038983     0.273076
	  182 D(22,5,4,23)    =      0.140512    -0.000001    -0.045643     0.094869
	  183 D(23,4,3,24)    =      0.381641    -0.000003    -0.200754     0.180887
	 ---------------------------------------------------------------------------
	Successfully symmetrized geometry.

  ==> Convergence Check <==

  Measures of convergence in internal coordinates in au.
  Criteria marked as inactive (o), active & met (*), and active & unmet ( ).
  --------------------------------------------------------------------------------------------- ~
   Step     Total Energy     Delta E     MAX Force     RMS Force      MAX Disp      RMS Disp    ~
  --------------------------------------------------------------------------------------------- ~
    Convergence Criteria    1.00e-06 *    3.00e-04 *             o    1.20e-03 *             o  ~
  --------------------------------------------------------------------------------------------- ~
      1    -923.49622430   -9.23e+02      4.67e-02      5.11e-03 o    1.54e-01      3.66e-02 o  ~
  ---------------------------------------------------------------------------------------------

	Writing optimization data to binary file.
	Structure for next step:
	Cartesian Geometry (in Angstrom)
	    C    -0.3948079622  -0.1468835527  -1.4446825730
	    C    -0.3835242025  -0.0932136276  -0.0366853341
	    C     0.8510515457  -0.1598785245   0.6413204173
	    C     2.0488381834  -0.2753497478  -0.0719606468
	    C     2.0214054374  -0.3240545367  -1.4771597132
	    C     0.8002255937  -0.2596739366  -2.1666588642
	    C    -1.6442171209  -0.0194878291   0.7561906058
	    C    -2.1245635264  -1.2453799645   1.5638988973
	    C    -2.1960218809  -0.7522172915   3.0239304862
	    C    -2.6461517632   0.7182405516   2.9180673635
	    C    -1.9959744476   1.1991786647   1.6189352694
	    C    -2.7313989831   0.9277690502   0.2982693625
	    H    -1.3565570252   2.0880365741   1.6038470566
	    H    -2.3188659811   1.3337275472   3.7682564845
	    H    -3.7452427232   0.7980720509   2.8698370817
	    H    -1.1841609945  -0.7895902868   3.4624096021
	    H    -2.8581428655  -1.3611364930   3.6576994944
	    H    -1.4237681545  -2.0802884717   1.4266269304
	    H    -3.1159344921  -1.5913925327   1.2147301848
	    H    -1.3451864026  -0.1106514295  -1.9891481499
	    H     0.7864497378  -0.3008530968  -3.2588757716
	   CL     3.5028691515  -0.4614882708  -2.3619964593
	    H     3.0040739600  -0.3227509584   0.4571046635
	    H     0.8755262148  -0.1140802251   1.7357590410
	    H    -2.5265636380   1.6564113112  -0.5138500091
	    H    -3.8472183042   0.6768624862   0.4760177530
	    H    -3.5094812509   0.5364265745  -0.5611304440
			--------------------------
			 OPTKING Finished Execution 
			--------------------------

    Structure for next step:
    Molecular point group: c1
    Full point group: C1

    Geometry (in Angstrom), charge = 1, multiplicity = 1:

    C           -0.389670162122    -0.038704420287    -1.441299727770
    C           -0.378386402351     0.014965505070    -0.033302483390
    C            0.856189350711    -0.051699392131     0.644703270687
    C            2.053975993047    -0.167170615857    -0.068577796226
    C            2.026543246941    -0.215875404941    -1.473776868158
    C            0.805363398474    -0.151494804634    -2.163276021843
    C           -1.639079325741     0.088691303866     0.759573459688
    C           -2.119425733140    -1.137200836401     1.567281754330
    C           -2.190884087892    -0.644038161477     3.027313348979
    C           -2.641013971926     0.826419687424     2.921450225880
    C           -1.990836653858     1.307357802381     1.622318126682
    C           -2.726261192244     1.035948186826     0.301652214579
    H           -1.351419228929     2.196215715298     1.607229913790
    H           -2.313728188585     1.441906685469     3.771639350173
    H           -3.740104936302     0.906251186983     2.873219943869
    H           -1.179023197497    -0.681411156926     3.465792466615
    H           -2.853005075105    -1.252957365373     3.661082359669
    H           -1.418630358490    -1.972109346841     1.430009786842
    H           -3.110796702754    -1.483213405980     1.218113040420
    H           -1.340048606213    -0.002472296965    -1.985765306819
    H            0.791587542564    -0.192673965025    -3.255492933535
    CL           3.508006966915    -0.353309139591    -2.358613617662
    H            3.009211773483    -0.214571826699     0.460487516152
    H            0.880664019895    -0.005901092573     1.739141898750
    H           -2.521425846286     1.764590450730    -0.510467160267
    H           -3.842080517691     0.785041621868     0.479400605752
    H           -3.504343463100     0.644605709584    -0.557747595276


Scratch directory: /tmp/
gradient() will perform analytic gradient computation.

*** tstart() called on skystd39.palmetto.clemson.edu
*** at Thu Oct 14 16:22:44 2021

   => Loading Basis Set <=

    Name: CC-PVDZ
    Role: ORBITAL
    Keyword: BASIS
    atoms 1-12         entry C          line   138 file /home/maxbuskirk/.conda/envs/psifour/share/psi4/basis/cc-pvdz.gbs 
    atoms 13-21, 23-27 entry H          line    22 file /home/maxbuskirk/.conda/envs/psifour/share/psi4/basis/cc-pvdz.gbs 
    atoms 22           entry CL         line   658 file /home/maxbuskirk/.conda/envs/psifour/share/psi4/basis/cc-pvdz.gbs 


         ---------------------------------------------------------
                                   SCF
               by Justin Turney, Rob Parrish, Andy Simmonett
                          and Daniel G. A. Smith
                              RHF Reference
                        1 Threads,  30517 MiB Core
         ---------------------------------------------------------

  ==> Geometry <==

    Molecular point group: c1
    Full point group: C1

    Geometry (in Angstrom), charge = 1, multiplicity = 1:

       Center              X                  Y                   Z               Mass       
    ------------   -----------------  -----------------  -----------------  -----------------
         C           -0.389670162122    -0.038704420287    -1.441299727770    12.000000000000
         C           -0.378386402351     0.014965505070    -0.033302483390    12.000000000000
         C            0.856189350711    -0.051699392131     0.644703270687    12.000000000000
         C            2.053975993047    -0.167170615857    -0.068577796226    12.000000000000
         C            2.026543246941    -0.215875404941    -1.473776868158    12.000000000000
         C            0.805363398474    -0.151494804634    -2.163276021843    12.000000000000
         C           -1.639079325741     0.088691303866     0.759573459688    12.000000000000
         C           -2.119425733140    -1.137200836401     1.567281754330    12.000000000000
         C           -2.190884087892    -0.644038161477     3.027313348979    12.000000000000
         C           -2.641013971926     0.826419687424     2.921450225880    12.000000000000
         C           -1.990836653858     1.307357802381     1.622318126682    12.000000000000
         C           -2.726261192244     1.035948186826     0.301652214579    12.000000000000
         H           -1.351419228929     2.196215715298     1.607229913790     1.007825032230
         H           -2.313728188585     1.441906685469     3.771639350173     1.007825032230
         H           -3.740104936302     0.906251186983     2.873219943869     1.007825032230
         H           -1.179023197497    -0.681411156926     3.465792466615     1.007825032230
         H           -2.853005075105    -1.252957365373     3.661082359669     1.007825032230
         H           -1.418630358490    -1.972109346841     1.430009786842     1.007825032230
         H           -3.110796702754    -1.483213405980     1.218113040420     1.007825032230
         H           -1.340048606213    -0.002472296965    -1.985765306819     1.007825032230
         H            0.791587542564    -0.192673965025    -3.255492933535     1.007825032230
         CL           3.508006966915    -0.353309139591    -2.358613617662    34.968852682000
         H            3.009211773483    -0.214571826699     0.460487516152     1.007825032230
         H            0.880664019895    -0.005901092573     1.739141898750     1.007825032230
         H           -2.521425846286     1.764590450730    -0.510467160267     1.007825032230
         H           -3.842080517691     0.785041621868     0.479400605752     1.007825032230
         H           -3.504343463100     0.644605709584    -0.557747595276     1.007825032230

  Running in c1 symmetry.

  Rotational constants: A =      0.07009  B =      0.01065  C =      0.01002 [cm^-1]
  Rotational constants: A =   2101.23266  B =    319.35595  C =    300.41432 [MHz]
  Nuclear repulsion =  844.147463546650670

  Charge       = 1
  Multiplicity = 1
  Electrons    = 102
  Nalpha       = 51
  Nbeta        = 51

  ==> Algorithm <==

  SCF Algorithm Type is DF.
  DIIS enabled.
  MOM disabled.
  Fractional occupation disabled.
  Guess Type is READ.
  Energy threshold   = 1.00e-10
  Density threshold  = 1.00e-10
  Integral threshold = 1.00e-12

  ==> Primary Basis <==

  Basis Set: CC-PVDZ
    Blend: CC-PVDZ
    Number of shells: 122
    Number of basis functions: 256
    Number of Cartesian functions: 269
    Spherical Harmonics?: true
    Max angular momentum: 2

   => Loading Basis Set <=

    Name: (CC-PVDZ AUX)
    Role: JKFIT
    Keyword: DF_BASIS_SCF
    atoms 1-12         entry C          line   121 file /home/maxbuskirk/.conda/envs/psifour/share/psi4/basis/cc-pvdz-jkfit.gbs 
    atoms 13-21, 23-27 entry H          line    51 file /home/maxbuskirk/.conda/envs/psifour/share/psi4/basis/cc-pvdz-jkfit.gbs 
    atoms 22           entry CL         line   667 file /home/maxbuskirk/.conda/envs/psifour/share/psi4/basis/cc-pvdz-jkfit.gbs 

   => Loading Basis Set <=

    Name: CC-PVDZ
    Role: ORBITAL
    Keyword: BASIS
    atoms 1-12         entry C          line   138 file /home/maxbuskirk/.conda/envs/psifour/share/psi4/basis/cc-pvdz.gbs 
    atoms 13-21, 23-27 entry H          line    22 file /home/maxbuskirk/.conda/envs/psifour/share/psi4/basis/cc-pvdz.gbs 
    atoms 22           entry CL         line   658 file /home/maxbuskirk/.conda/envs/psifour/share/psi4/basis/cc-pvdz.gbs 

  Reading orbitals from file /tmp/2ndcornerCl.mol.2958337.180.npy, no projection.

  ==> Integral Setup <==

  DFHelper Memory: AOs need 0.577 GiB; user supplied 22.352 GiB. Using in-core AOs.

  ==> MemDFJK: Density-Fitted J/K Matrices <==

    J tasked:                   Yes
    K tasked:                   Yes
    wK tasked:                   No
    OpenMP threads:               1
    Memory [MiB]:             22888
    Algorithm:                 Core
    Schwarz Cutoff:           1E-12
    Mask sparsity (%):      10.9772
    Fitting Condition:        1E-10

   => Auxiliary Basis Set <=

  Basis Set: (CC-PVDZ AUX)
    Blend: CC-PVDZ-JKFIT
    Number of shells: 450
    Number of basis functions: 1274
    Number of Cartesian functions: 1452
    Spherical Harmonics?: true
    Max angular momentum: 3

  Minimum eigenvalue in the overlap matrix is 3.0556172705E-04.
  Reciprocal condition number of the overlap matrix is 4.3575113574E-05.
    Using symmetric orthogonalization.

  ==> Pre-Iterations <==

  SCF Guess: Orbitals guess was supplied from a previous computation.

   -------------------------------------------------------
    Irrep   Nso     Nmo     Nalpha   Nbeta   Ndocc  Nsocc
   -------------------------------------------------------
     A        256     256      51      51      51       0
   -------------------------------------------------------
    Total     256     256      51      51      51       0
   -------------------------------------------------------

  ==> Iterations <==

                           Total Energy        Delta E     RMS |[F,P]|

   @DF-RHF iter   0:  -921.63627536815227   -9.21636e+02   1.39664e-03 
   @DF-RHF iter   1:  -921.71113177626387   -7.48564e-02   2.17852e-04 DIIS
   @DF-RHF iter   2:  -921.71435857494055   -3.22680e-03   7.82591e-05 DIIS
   @DF-RHF iter   3:  -921.71486718348524   -5.08609e-04   3.25585e-05 DIIS
   @DF-RHF iter   4:  -921.71494502129394   -7.78378e-05   8.29708e-06 DIIS
   @DF-RHF iter   5:  -921.71495268204751   -7.66075e-06   3.45449e-06 DIIS
   @DF-RHF iter   6:  -921.71495384984178   -1.16779e-06   1.52670e-06 DIIS
   @DF-RHF iter   7:  -921.71495401801508   -1.68173e-07   4.94918e-07 DIIS
   @DF-RHF iter   8:  -921.71495404962502   -3.16099e-08   2.14426e-07 DIIS
   @DF-RHF iter   9:  -921.71495405602377   -6.39875e-09   1.08989e-07 DIIS
   @DF-RHF iter  10:  -921.71495405810469   -2.08092e-09   4.60083e-08 DIIS
   @DF-RHF iter  11:  -921.71495405845224   -3.47541e-10   1.77719e-08 DIIS
   @DF-RHF iter  12:  -921.71495405849748   -4.52474e-11   7.19999e-09 DIIS
   @DF-RHF iter  13:  -921.71495405850544   -7.95808e-12   2.26553e-09 DIIS
   @DF-RHF iter  14:  -921.71495405850578   -3.41061e-13   8.69151e-10 DIIS
   @DF-RHF iter  15:  -921.71495405850601   -2.27374e-13   3.31097e-10 DIIS
   @DF-RHF iter  16:  -921.71495405850669   -6.82121e-13   1.15109e-10 DIIS
   @DF-RHF iter  17:  -921.71495405850533    1.36424e-12   4.96854e-11 DIIS
  Energy and wave function converged.


  ==> Post-Iterations <==

    Orbital Energies [Eh]
    ---------------------

    Doubly Occupied:                                                      

       1A   -104.933489     2A    -11.492169     3A    -11.476282  
       4A    -11.449904     5A    -11.424778     6A    -11.401654  
       7A    -11.396989     8A    -11.396469     9A    -11.388423  
      10A    -11.384389    11A    -11.382535    12A    -11.376890  
      13A    -11.376122    14A    -10.660377    15A     -8.128018  
      16A     -8.124375    17A     -8.124322    18A     -1.397938  
      19A     -1.303250    20A     -1.238855    21A     -1.226614  
      22A     -1.154797    23A     -1.151409    24A     -1.126727  
      25A     -1.090785    26A     -0.971906    27A     -0.969363  
      28A     -0.964841    29A     -0.918697    30A     -0.876366  
      31A     -0.844725    32A     -0.795077    33A     -0.780237  
      34A     -0.774860    35A     -0.761996    36A     -0.751378  
      37A     -0.726303    38A     -0.719862    39A     -0.682972  
      40A     -0.673309    41A     -0.655397    42A     -0.648790  
      43A     -0.645065    44A     -0.639097    45A     -0.628334  
      46A     -0.624985    47A     -0.595993    48A     -0.569249  
      49A     -0.551199    50A     -0.470780    51A     -0.447131  

    Virtual:                                                              

      52A     -0.111984    53A     -0.025355    54A     -0.010808  
      55A     -0.005666    56A      0.023082    57A      0.043713  
      58A      0.065614    59A      0.075484    60A      0.089313  
      61A      0.094846    62A      0.110984    63A      0.114867  
      64A      0.122367    65A      0.135091    66A      0.137466  
      67A      0.149412    68A      0.154969    69A      0.165499  
      70A      0.183977    71A      0.202346    72A      0.215485  
      73A      0.218248    74A      0.252907    75A      0.258254  
      76A      0.293892    77A      0.312111    78A      0.319833  
      79A      0.335274    80A      0.348297    81A      0.357594  
      82A      0.403560    83A      0.429098    84A      0.458029  
      85A      0.462418    86A      0.484616    87A      0.495231  
      88A      0.507466    89A      0.511864    90A      0.513647  
      91A      0.527113    92A      0.533654    93A      0.558154  
      94A      0.565131    95A      0.570397    96A      0.580983  
      97A      0.592851    98A      0.597547    99A      0.606436  
     100A      0.610899   101A      0.614477   102A      0.625396  
     103A      0.639570   104A      0.648400   105A      0.656675  
     106A      0.666677   107A      0.676923   108A      0.682463  
     109A      0.690666   110A      0.694236   111A      0.698247  
     112A      0.705424   113A      0.712528   114A      0.722057  
     115A      0.731269   116A      0.742799   117A      0.746561  
     118A      0.751896   119A      0.759907   120A      0.770606  
     121A      0.784518   122A      0.789362   123A      0.791300  
     124A      0.794905   125A      0.800406   126A      0.819659  
     127A      0.830310   128A      0.846683   129A      0.866687  
     130A      0.880455   131A      0.885948   132A      0.897567  
     133A      0.955632   134A      0.976221   135A      0.988175  
     136A      1.010488   137A      1.015631   138A      1.026279  
     139A      1.036812   140A      1.068354   141A      1.082622  
     142A      1.092246   143A      1.104287   144A      1.105907  
     145A      1.134673   146A      1.146587   147A      1.167285  
     148A      1.173193   149A      1.195456   150A      1.215683  
     151A      1.227610   152A      1.259774   153A      1.268959  
     154A      1.292906   155A      1.294106   156A      1.316333  
     157A      1.351560   158A      1.366145   159A      1.367828  
     160A      1.384219   161A      1.421984   162A      1.428797  
     163A      1.450485   164A      1.474926   165A      1.507597  
     166A      1.514037   167A      1.544315   168A      1.560998  
     169A      1.569916   170A      1.578400   171A      1.589454  
     172A      1.624792   173A      1.631346   174A      1.640984  
     175A      1.658400   176A      1.677330   177A      1.686623  
     178A      1.693999   179A      1.695737   180A      1.728205  
     181A      1.738142   182A      1.750421   183A      1.762249  
     184A      1.774051   185A      1.775724   186A      1.783459  
     187A      1.797115   188A      1.800884   189A      1.812524  
     190A      1.818629   191A      1.823290   192A      1.832900  
     193A      1.848766   194A      1.861428   195A      1.873062  
     196A      1.879051   197A      1.885982   198A      1.895951  
     199A      1.914211   200A      1.923955   201A      1.935152  
     202A      1.936796   203A      1.945841   204A      1.962571  
     205A      1.968373   206A      2.006785   207A      2.010365  
     208A      2.021879   209A      2.047882   210A      2.059887  
     211A      2.068124   212A      2.080204   213A      2.084267  
     214A      2.106400   215A      2.118246   216A      2.131218  
     217A      2.141335   218A      2.170192   219A      2.187157  
     220A      2.203263   221A      2.218170   222A      2.233528  
     223A      2.257989   224A      2.269245   225A      2.289282  
     226A      2.306147   227A      2.312387   228A      2.319392  
     229A      2.365177   230A      2.374724   231A      2.422659  
     232A      2.427020   233A      2.458099   234A      2.500704  
     235A      2.523645   236A      2.540201   237A      2.575560  
[...]
      10       -0.000301015294     0.001920322343     0.004505225726
      11       -0.014666666820     0.013009439520    -0.019749904447
      12        0.022940402886    -0.045414745250     0.000794095644
      13       -0.000716681923     0.000246589554     0.001736745488
      14       -0.000593125985    -0.000650775905     0.000054612674
      15        0.000262094540    -0.001275388264    -0.000461123612
      16        0.000350972080     0.000250989562    -0.000459136622
      17        0.000410054678    -0.000088898698     0.000516705697
      18       -0.000349340611    -0.000388473156    -0.000643934253
      19       -0.000352347139     0.000391935043     0.000181637761
      20        0.000522767732    -0.000174384214    -0.000502664649
      21       -0.000585719664    -0.000053408055    -0.000063565784
      22       -0.000336044976    -0.000017398926     0.000257034297
      23       -0.000194879367     0.000019372270     0.000507417007
      24        0.000515103644     0.000104869261    -0.000033059495
      25        0.001139094843     0.000316966584     0.001764876336
      26        0.001399265673     0.002339284816     0.002724560242
      27       -0.012915397950     0.028342475623     0.002928005057


*** tstop() called on skystd39.palmetto.clemson.edu at Thu Oct 14 16:35:51 2021
Module time:
	user time   =      58.35 seconds =       0.97 minutes
	system time =       3.23 seconds =       0.05 minutes
	total time  =         62 seconds =       1.03 minutes
Total time:
	user time   =     822.96 seconds =      13.72 minutes
	system time =      42.98 seconds =       0.72 minutes
	total time  =        870 seconds =      14.50 minutes

			-----------------------------------------
			 OPTKING 2.0: for geometry optimizations 
			  - R.A. King,  Bethel University        
			-----------------------------------------

	Previous internal coordinate definitions found.
	---Fragment 1 Geometry and Gradient---
	 C          -0.6655311984       -0.3389181475       -2.6928922316
	 C          -0.6965855000       -0.0316114056       -0.0529840301
	 C           1.5837477225        0.3864085367        1.2636333733
	 C           3.8763701218        0.5274229120       -0.0490649139
	 C           3.8793720122        0.2418412330       -2.6904664320
	 C           1.6212613392       -0.1918546308       -4.0195892241
	 C          -3.0699223252       -0.2904498345        1.4723310501
	 C          -3.8455367170       -2.7998708427        2.7470354424
	 C          -4.1821597976       -2.0698597868        5.5509372016
	 C          -5.1497241263        0.6910879879        5.4985591610
	 C          -3.8959258600        1.7286542413        3.1483576599
	 C          -5.3971459649        1.0524718434        0.1786986327
	 H          -3.2783248753        3.6963510845        2.9907619672
	 H          -4.5680524177        1.8461582316        7.1303518627
	 H          -7.2277316768        0.8100169649        5.4048128910
	 H          -2.3185645602       -2.1034992159        6.4844762440
	 H          -5.4366674820       -3.3449165174        6.6075801926
	 H          -2.3914565151       -4.2503575328        2.4432727259
	 H          -5.6244675641       -3.5066533992        1.9228482306
	 H          -2.4057921190       -0.7074256637       -3.7467759269
	 H           1.6539229001       -0.4178582107       -6.0714067425
	 CL          6.7027778704        0.4247437150       -4.3257810339
	 H           5.6463420281        0.8566530028        0.9616670117
	 H           1.5868275787        0.5968120730        3.3236401568
	 H          -4.9061099597        3.0179913857       -0.3740963169
	 H          -7.1291749921        1.1819212326        1.3618633498
	 H          -6.3532986607        0.6214695560       -1.6358000771
	            -0.0010299366        0.0006348161        0.0000054559
	             0.0004824043        0.0002516539       -0.0027334798
	            -0.0003332819       -0.0008132014        0.0011580653
	             0.0008970684        0.0001346512        0.0001268156
	            -0.0015542958       -0.0001388906        0.0005050357
	             0.0008890171        0.0001380683       -0.0008128317
	             0.0046507428        0.0007890143        0.0092600993
	             0.0005048243       -0.0000075217       -0.0007100842
	            -0.0010350790        0.0001326379       -0.0008566031
	            -0.0003010153        0.0019203223        0.0045052257
	            -0.0146666668        0.0130094395       -0.0197499044
	             0.0229404029       -0.0454147453        0.0007940956
	            -0.0007166819        0.0002465896        0.0017367455
	            -0.0005931260       -0.0006507759        0.0000546127
	             0.0002620945       -0.0012753883       -0.0004611236
	             0.0003509721        0.0002509896       -0.0004591366
	             0.0004100547       -0.0000888987        0.0005167057
	            -0.0003493406       -0.0003884732       -0.0006439343
	            -0.0003523471        0.0003919350        0.0001816378
	             0.0005227677       -0.0001743842       -0.0005026646
	            -0.0005857197       -0.0000534081       -0.0000635658
	            -0.0003360450       -0.0000173989        0.0002570343
	            -0.0001948794        0.0000193723        0.0005074170
	             0.0005151036        0.0001048693       -0.0000330595
	             0.0011390948        0.0003169666        0.0017648763
	             0.0013992657        0.0023392848        0.0027245602
	            -0.0129153980        0.0283424756        0.0029280051

	---Fragment 1 Intrafragment Coordinates---
	 - Coordinate -           - BOHR/RAD -       - ANG/DEG -
	 R(1,2)           =         2.657916	       1.406509
	 R(1,6)           =         2.647862	       1.401188
	 R(1,20)          =         2.067602	       1.094128
	 R(2,3)           =         2.666110	       1.410845
	 R(2,7)           =         2.833074	       1.499198
	 R(3,4)           =         2.645596	       1.399989
	 R(3,24)          =         2.070726	       1.095781
	 R(4,5)           =         2.656797	       1.405916
	 R(4,23)          =         2.064648	       1.092565
	 R(5,6)           =         2.655885	       1.405434
	 R(5,22)          =         3.267924	       1.729311
	 R(6,21)          =         2.064485	       1.092479
	 R(7,8)           =         2.919528	       1.544948
	 R(7,11)          =         2.751023	       1.455779
	 R(7,12)          =         2.982095	       1.578057
	 R(8,9)           =         2.916864	       1.543538
	 R(8,18)          =         2.076182	       1.098668
	 R(8,19)          =         2.084088	       1.102852
	 R(9,10)          =         2.926048	       1.548398
	 R(9,16)          =         2.084614	       1.103130
	 R(9,17)          =         2.077511	       1.099372
	 R(10,11)         =         2.858671	       1.512744
	 R(10,14)         =         2.082133	       1.101817
	 R(10,15)         =         2.083518	       1.102550
	 R(11,12)         =         3.395550	       1.796848
	 R(11,13)         =         2.068356	       1.094527
	 R(12,25)         =         2.099992	       1.111268
	 R(12,26)         =         2.101561	       1.112098
	 R(12,27)         =         2.095805	       1.109052
	 B(1,2,3)         =         2.092807	     119.908989
	 B(1,2,7)         =         2.134088	     122.274246
	 B(1,6,5)         =         2.085888	     119.512554
	 B(1,6,21)        =         2.100820	     120.368095
	 B(2,1,6)         =         2.095919	     120.087297
	 B(2,1,20)        =         2.114177	     121.133413
	 B(2,3,4)         =         2.099616	     120.299135
	 B(2,3,24)        =         2.104217	     120.562742
	 B(2,7,8)         =         2.136670	     122.422176
	 B(2,7,11)        =         2.108872	     120.829484
	 B(2,7,12)        =         1.959577	     112.275476
	 B(3,2,7)         =         2.054381	     117.707337
	 B(3,4,5)         =         2.081231	     119.245777
	 B(3,4,23)        =         2.104233	     120.563672
	 B(4,3,24)        =         2.079344	     119.137624
	 B(4,5,6)         =         2.110797	     120.939775
	 B(4,5,22)        =         2.085727	     119.503336
	 B(5,4,23)        =         2.097721	     120.190539
	 B(5,6,21)        =         2.096474	     120.119086
	 B(6,1,20)        =         2.073067	     118.777993
	 B(6,5,22)        =         2.086661	     119.556872
	 B(7,8,9)         =         1.808269	     103.606173
	 B(7,8,18)        =         1.928958	     110.521157
	 B(7,8,19)        =         1.923668	     110.218057
	 B(7,11,10)       =         1.945690	     111.479822
	 B(7,11,12)       =         0.992935	      56.890997
	 B(7,11,13)       =         2.167784	     124.204882
	 B(7,12,11)       =         0.883127	      50.599461
	 B(7,12,25)       =         1.931791	     110.683464
	 B(7,12,26)       =         2.011624	     115.257567
	 B(7,12,27)       =         2.263993	     129.717222
	 B(8,7,11)        =         1.859887	     106.563703
	 B(8,7,12)        =         1.948890	     111.663149
	 B(8,9,10)        =         1.830822	     104.898370
	 B(8,9,16)        =         1.899981	     108.860906
	 B(8,9,17)        =         1.987773	     113.890997
	 B(9,8,18)        =         1.978298	     113.348102
	 B(9,8,19)        =         1.946061	     111.501102
	 B(9,10,11)       =         1.784581	     102.248959
	 B(9,10,14)       =         2.000988	     114.648169
	 B(9,10,15)       =         1.965423	     112.610450
	 B(10,9,16)       =         1.895319	     108.593780
	 B(10,9,17)       =         1.969843	     112.863664
	 B(10,11,12)      =         2.040730	     116.925224
	 B(10,11,13)      =         2.139920	     122.608364
	 B(11,7,12)       =         1.265530	      72.509542
	 B(11,10,14)      =         1.896987	     108.689326
	 B(11,10,15)      =         1.960296	     112.316706
	 B(11,12,25)      =         1.511216	      86.586327
	 B(11,12,26)      =         1.430061	      81.936451
	 B(11,12,27)      =         3.123736	     178.976904
	 B(12,11,13)      =         1.828461	     104.763070
	 B(14,10,15)      =         1.856905	     106.392821
	 B(16,9,17)       =         1.877751	     107.587214
	 B(18,8,19)       =         1.878661	     107.639374
	 B(25,12,26)      =         1.857988	     106.454872
	 B(25,12,27)      =         1.642111	      94.086042
	 B(26,12,27)      =         1.695209	      97.128338
	 D(1,2,3,4)       =         0.013485	       0.772644
	 D(1,2,3,24)      =        -3.123581	    -178.967993
	 D(1,2,7,8)       =         1.642441	      94.104941
	 D(1,2,7,11)      =        -2.187374	    -125.327284
	 D(1,2,7,12)      =        -0.750736	     -43.013981
	 D(1,6,5,4)       =         0.001192	       0.068302
	 D(1,6,5,22)      =        -3.141234	    -179.979446
	 D(2,1,6,5)       =         0.009741	       0.558126
	 D(2,1,6,21)      =        -3.135118	    -179.629039
	 D(2,3,4,5)       =        -0.002624	      -0.150335
	 D(2,3,4,23)      =         3.138286	     179.810541
	 D(2,7,8,9)       =         2.173722	     124.545107
	 D(2,7,8,18)      =         0.049053	       2.810515
	 D(2,7,8,19)      =        -2.025426	    -116.048351
	 D(2,7,11,10)     =        -2.532927	    -145.126026
	 D(2,7,11,12)     =         1.849145	     105.948219
	 D(2,7,11,13)     =         0.353837	      20.273374
	 D(2,7,12,11)     =        -2.039331	    -116.845082
	 D(2,7,12,25)     =        -0.871868	     -49.954376
	 D(2,7,12,26)     =        -2.981225	    -170.811588
	 D(2,7,12,27)     =         1.124285	      64.416784
	 D(3,2,1,6)       =        -0.017050	      -0.976879
	 D(3,2,1,20)      =         3.117221	     178.603634
	 D(3,2,7,8)       =        -1.432650	     -82.084792
	 D(3,2,7,11)      =         1.020721	      58.482983
	 D(3,2,7,12)      =         2.457359	     140.796286
	 D(3,4,5,6)       =        -0.004741	      -0.271668
	 D(3,4,5,22)      =         3.137684	     179.776056
	 D(4,3,2,7)       =         3.090214	     177.056212
	 D(4,5,6,21)      =        -3.137142	    -179.745005
	 D(5,4,3,24)      =         3.134506	     179.593978
	 D(5,6,1,20)      =        -3.124702	    -179.032210
	 D(6,1,2,7)       =        -3.090718	    -177.085099
	 D(6,5,4,23)      =         3.137531	     179.767307
	 D(7,2,1,20)      =         0.043553	       2.495414
	 D(7,2,3,24)      =        -0.046852	      -2.684425
	 D(7,8,9,10)      =         0.568585	      32.577536
	 D(7,8,9,16)      =        -1.457315	     -83.498002
	 D(7,8,9,17)      =         2.730849	     156.466100
	 D(7,11,10,9)     =         0.335702	      19.234312
	 D(7,11,10,14)    =         2.457987	     140.832298
	 D(7,11,10,15)    =        -1.775387	    -101.722203
	 D(7,11,12,25)    =        -2.102380	    -120.457513
	 D(7,11,12,26)    =         2.310503	     132.382077
	 D(7,11,12,27)    =         1.892496	     108.432058
	 D(7,12,11,10)    =        -1.730580	     -99.154902
	 D(7,12,11,13)    =         2.120209	     121.479046
	 D(8,7,11,10)     =         0.015043	       0.861895
	 D(8,7,11,12)     =        -1.886070	    -108.063861
	 D(8,7,11,13)     =         2.901807	     166.261294
	 D(8,7,12,11)     =         1.768533	     101.329492
	 D(8,7,12,25)     =         2.935996	     168.220199
	 D(8,7,12,26)     =         0.826640	      47.362986
	 D(8,7,12,27)     =        -1.351036	     -77.408642
	 D(8,9,10,11)     =        -0.550996	     -31.569740
	 D(8,9,10,14)     =        -2.600228	    -148.982066
	 D(8,9,10,15)     =         1.556545	      89.183476
	 D(9,8,7,11)      =        -0.362549	     -20.772522
	 D(9,8,7,12)      =        -1.712299	     -98.107496
	 D(9,10,11,12)    =         1.430172	      81.942802
	 D(9,10,11,13)    =        -2.555803	    -146.436732
	 D(10,9,8,18)     =         2.659892	     152.400612
	 D(10,9,8,19)     =        -1.500035	     -85.945693
	 D(10,11,7,12)    =         1.901113	     108.925756
	 D(10,11,12,25)   =         2.450226	     140.387585
	 D(10,11,12,26)   =         0.579924	      33.227175
	 D(10,11,12,27)   =         0.161917	       9.277156
	 D(11,7,8,18)     =        -2.487218	    -142.507114
	 D(11,7,8,19)     =         1.721488	      98.634020
	 D(11,7,12,25)    =         1.167463	      66.890707
	 D(11,7,12,26)    =        -0.941893	     -53.966506
	 D(11,7,12,27)    =        -3.119569	    -178.738134
	 D(11,10,9,16)    =         1.478121	      84.690101
	 D(11,10,9,17)    =        -2.724658	    -156.111394
	 D(12,7,8,18)     =         2.446217	     140.157912
	 D(12,7,8,19)     =         0.371738	      21.299046
	 D(12,7,11,13)    =        -1.495308	     -85.674845
	 D(12,11,10,14)   =        -2.730728	    -156.459212
	 D(12,11,10,15)   =        -0.680918	     -39.013713
	 D(13,11,10,14)   =        -0.433518	     -24.838746
	 D(13,11,10,15)   =         1.616293	      92.606753
	 D(13,11,12,25)   =         0.017829	       1.021533
	 D(13,11,12,26)   =        -1.852473	    -106.138877
	 D(13,11,12,27)   =        -2.270480	    -130.088896
	 D(14,10,9,16)    =        -0.571111	     -32.722225
	 D(14,10,9,17)    =         1.509296	      86.476281
	 D(15,10,9,16)    =        -2.697523	    -154.556683
	 D(15,10,9,17)    =        -0.617117	     -35.358177
	 D(16,9,8,18)     =         0.633992	      36.325075
	 D(16,9,8,19)     =         2.757250	     157.978770
	 D(17,9,8,18)     =        -1.461029	     -83.710824
	 D(17,9,8,19)     =         0.662228	      37.942871
	 D(20,1,6,21)     =         0.013624	       0.780624
	 D(21,6,5,22)     =         0.003617	       0.207246
	 D(22,5,4,23)     =        -0.003228	      -0.184970
	 D(23,4,3,24)     =        -0.007769	      -0.445146

	Current energy   :      -923.5563395442

	Energy change for the previous step:
		Projected    :        -0.0018883745
		Actual       :        -0.0025710163

	Performing Bofill update.
	Previous computed or guess Hessian on step 1.
	Steps to be used in Hessian update: 10 9
	Taking PRFO optimization step.
	Maximizing along 1 lowest eigenvalue of Hessian.

 RFO min eigenvalues
 -0.003421 -0.000000 -0.000000 -0.000000 -0.000000 -0.000000 -0.000000 -0.000000
 -0.000000 -0.000000 -0.000000 -0.000000 -0.000000 -0.000000 -0.000000 -0.000000
 -0.000000 -0.000000 -0.000000 -0.000000 -0.000000 -0.000000 -0.000000 -0.000000
 -0.000000 -0.000000 -0.000000 -0.000000 -0.000000 -0.000000 -0.000000 -0.000000
 -0.000000 -0.000000 -0.000000 -0.000000 -0.000000 -0.000000 -0.000000 -0.000000
 -0.000000 -0.000000 -0.000000 -0.000000 -0.000000 -0.000000 -0.000000 -0.000000
 -0.000000 -0.000000 -0.000000 -0.000000 -0.000000  0.000000  0.000000  0.000000
  0.000000  0.000000  0.000000  0.000000  0.000000  0.000000  0.000000  0.000000
  0.000000  0.000000  0.000000  0.000000  0.000000  0.000000  0.000000  0.000000
  0.000000  0.000000  0.000000  0.000000  0.000000  0.000000  0.000000  0.000000
  0.000000  0.000000  0.000000  0.000000  0.000000  0.000000  0.000000  0.000000
  0.000000  0.000000  0.000000  0.000000  0.000000  0.000000  0.000000  0.000000
  0.000000  0.000000  0.000000  0.000000  0.000000  0.000000  0.000000  0.000000
  0.000000  0.000000  0.000000  0.000000  0.000000  0.003038  0.005102  0.008130
  0.012455  0.012577  0.015382  0.016995  0.017264  0.017360  0.017493  0.017536
  0.017589  0.017609  0.017663  0.019251  0.021748  0.027757  0.029138  0.037195
  0.043059  0.050612  0.053932  0.058535  0.061097  0.068326  0.068935  0.069787
  0.070230  0.077938  0.080318  0.087467  0.091404  0.097911  0.103542  0.110515
  0.159708  0.159979  0.159998  0.160055  0.165816  0.174334  0.197985  0.203668
  0.220006  0.229704  0.239978  0.249722  0.249998  0.262664  0.265712  0.276219
  0.290548  0.299733  0.314791  0.331191  0.331295  0.331546  0.331824  0.333282
  0.335056  0.335224  0.341744  0.342654  0.343060  0.343071  0.343394  0.343477
  0.345592  0.407319  0.409114  0.442311  0.445131  0.448684  0.450577

 RFO max eigenvalues
 -0.013095  0.000058
	Change in coordinate exceeds step limit of    0.50000.
	Scaling displacements by    0.67786
	|RFO target step|  :        0.5000000000
	RFO gradient       :       -0.0045587504
	RFO hessian        :        0.0027881493
	Projected Delta(E) :       -0.0015446852

	Back-transformation to cartesian coordinates...
	The INTCO_EXCEPTion handler:
	TORS::compute_val: unable to compute torsion value
	Dynamic level is 0.
	exc.g_really_quit() is 0.

  **** Optimization has failed! (in 11 steps) ****
			--------------------------
			 OPTKING Finished Execution 
			--------------------------
	Removing binary optimization data file.
	Cleaning optimization helper files.

PsiException: Could not converge geometry optimization in 10 iterations.


Traceback (most recent call last):
  File "/home/maxbuskirk/.conda/envs/psifour/bin/psi4", line 333, in <module>
    exec(content)
  File "<string>", line 58, in <module>
  File "/home/maxbuskirk/.conda/envs/psifour/lib//python3.9/site-packages/psi4/driver/driver.py", line 1433, in optimize
    raise OptimizationConvergenceError("""geometry optimization""", n - 1, wfn)

psi4.driver.p4util.exceptions.OptimizationConvergenceError: Could not converge geometry optimization in 10 iterations.


Printing out the relevant lines from the Psithon --> Python processed input file:
    core.set_global_option("BASIS", "cc-pVDZ")
    core.set_global_option("REFERENCE", "rhf")
    core.set_global_option("GEOM_MAXITER", 400)
    mol.update_geometry()
    mol.symmetrize(1e-3)
--> e, wfn = optimize('mp2', return_wfn=True)
    oeprop(wfn, "MULLIKEN_CHARGES")
    mol.print_out()
    print_variables()

!-------------------------------------------------------------!
!                                                             !
!  Could not converge geometry optimization in 10 iterations. !
!                                                             !
!-------------------------------------------------------------!

    Psi4 stopped on: Thursday, 14 October 2021 04:35PM
    Psi4 wall time for execution: 0:14:29.71

*** Psi4 encountered an error. Buy a developer more coffee!
*** Resources and help at github.com/psi4/psi4.
