
    -----------------------------------------------------------------------
          Psi4: An Open-Source Ab Initio Electronic Structure Package
                               Psi4 1.4 release

                         Git: Rev {HEAD} 9485035 


    D. G. A. Smith, L. A. Burns, A. C. Simmonett, R. M. Parrish,
    M. C. Schieber, R. Galvelis, P. Kraus, H. Kruse, R. Di Remigio,
    A. Alenaizan, A. M. James, S. Lehtola, J. P. Misiewicz, M. Scheurer,
    R. A. Shaw, J. B. Schriber, Y. Xie, Z. L. Glick, D. A. Sirianni,
    J. S. O'Brien, J. M. Waldrop, A. Kumar, E. G. Hohenstein,
    B. P. Pritchard, B. R. Brooks, H. F. Schaefer III, A. Yu. Sokolov,
    K. Patkowski, A. E. DePrince III, U. Bozkaya, R. A. King,
    F. A. Evangelista, J. M. Turney, T. D. Crawford, C. D. Sherrill,
    J. Chem. Phys. 152(18) 184108 (2020). https://doi.org/10.1063/5.0006002

                            Additional Code Authors
    E. T. Seidl, C. L. Janssen, E. F. Valeev, M. L. Leininger,
    J. F. Gonthier, R. M. Richard, H. R. McAlexander, M. Saitow, X. Wang,
    P. Verma, and M. H. Lechner

             Previous Authors, Complete List of Code Contributors,
                       and Citations for Specific Modules
    https://github.com/psi4/psi4/blob/master/codemeta.json
    https://github.com/psi4/psi4/graphs/contributors
    http://psicode.org/psi4manual/master/introduction.html#citing-psifour

    -----------------------------------------------------------------------


    Psi4 started on: Thursday, 14 October 2021 04:35PM

    Process ID: 2960227
    Host:       skystd39.palmetto.clemson.edu
    PSIDATADIR: /home/maxbuskirk/.conda/envs/psifour/share/psi4
    Memory:     500.0 MiB
    Threads:    1
    
  ==> Input File <==

--------------------------------------------------------------------------
memory 32 GB

molecule mol {
1 1
C     0.000000     0.000000     0.000000
 C     0.000000     0.000000     1.408159
 C     1.238390     0.000000     2.083940
 C     2.446171     0.002671     1.370515
 C     2.433389     0.006984    -0.034905
 C     1.206959     0.006405    -0.718344
 C    -1.272775    -0.045945     2.187365
 C    -1.628447    -1.335766     2.950642
 C    -1.737379    -0.899581     4.425121
 C    -2.298884     0.536035     4.367965
 C    -1.714925     1.117079     3.080374
 C    -2.447067     0.821045     1.785889
 H    -1.105209     2.024766     3.117431
 H    -2.010969     1.129559     5.250215
 H    -3.402905     0.523128     4.327995
 H    -0.722722    -0.866532     4.860367
 H    -2.343692    -1.584853     5.041474
 H    -0.859446    -2.109250     2.797197
 H    -2.588575    -1.747216     2.590082
 H    -0.956167    -0.008250    -0.533134
 H     1.189730     0.008722    -1.812628
 O     3.620201     0.015345    -0.739041
 H     3.398462     0.008262     1.909827
 H     1.248128     0.009821     3.179443
 H    -2.297185     1.520127     0.958263
 H    -3.450761     0.388542     1.857464
 H    -3.244899     0.396095     0.858224
 C     3.348039     0.018210    -2.112329
 H     4.284589     0.024808    -2.667983
 H     2.778533    -0.873122    -2.371383
 H     2.769293     0.905175    -2.365841
}

set scf_type df
set opt_type ts
set basis cc-pVDZ
set reference rhf
set geom_maxiter 400


mol.update_geometry()
mol.symmetrize(1e-3)

e, wfn = optimize('mp2', return_wfn=True)
oeprop(wfn, "MULLIKEN_CHARGES")
mol.print_out()
print_variables()
--------------------------------------------------------------------------

  Memory set to  29.802 GiB by Python driver.

Scratch directory: /tmp/
gradient() will perform analytic gradient computation.

*** tstart() called on skystd39.palmetto.clemson.edu
*** at Thu Oct 14 16:35:57 2021

   => Loading Basis Set <=

    Name: CC-PVDZ
    Role: ORBITAL
    Keyword: BASIS
    atoms 1-12, 28            entry C          line   138 file /home/maxbuskirk/.conda/envs/psifour/share/psi4/basis/cc-pvdz.gbs 
    atoms 13-21, 23-27, 29-31 entry H          line    22 file /home/maxbuskirk/.conda/envs/psifour/share/psi4/basis/cc-pvdz.gbs 
    atoms 22                  entry O          line   198 file /home/maxbuskirk/.conda/envs/psifour/share/psi4/basis/cc-pvdz.gbs 


         ---------------------------------------------------------
                                   SCF
               by Justin Turney, Rob Parrish, Andy Simmonett
                          and Daniel G. A. Smith
                              RHF Reference
                        1 Threads,  30517 MiB Core
         ---------------------------------------------------------

  ==> Geometry <==

    Molecular point group: c1
    Full point group: C1

    Geometry (in Angstrom), charge = 1, multiplicity = 1:

       Center              X                  Y                   Z               Mass       
    ------------   -----------------  -----------------  -----------------  -----------------
         C           -0.240130739958    -0.014376035601    -1.400745292139    12.000000000000
         C           -0.240130739958    -0.014376035601     0.007413707861    12.000000000000
         C            0.998259260042    -0.014376035601     0.683194707861    12.000000000000
         C            2.206040260042    -0.011705035601    -0.030230292139    12.000000000000
         C            2.193258260042    -0.007392035601    -1.435650292139    12.000000000000
         C            0.966828260042    -0.007971035601    -2.119089292139    12.000000000000
         C           -1.512905739958    -0.060321035601     0.786619707861    12.000000000000
         C           -1.868577739958    -1.350142035601     1.549896707861    12.000000000000
         C           -1.977509739958    -0.913957035601     3.024375707861    12.000000000000
         C           -2.539014739958     0.521658964399     2.967219707861    12.000000000000
         C           -1.955055739958     1.102702964399     1.679628707861    12.000000000000
         C           -2.687197739958     0.806668964399     0.385143707861    12.000000000000
         H           -1.345339739958     2.010389964399     1.716685707861     1.007825032230
         H           -2.251099739958     1.115182964399     3.849469707861     1.007825032230
         H           -3.643035739958     0.508751964399     2.927249707861     1.007825032230
         H           -0.962852739958    -0.880908035601     3.459621707861     1.007825032230
         H           -2.583822739958    -1.599229035601     3.640728707861     1.007825032230
         H           -1.099576739958    -2.123626035601     1.396451707861     1.007825032230
         H           -2.828705739958    -1.761592035601     1.189336707861     1.007825032230
         H           -1.196297739958    -0.022626035601    -1.933879292139     1.007825032230
         H            0.949599260042    -0.005654035601    -3.213373292139     1.007825032230
         O            3.380070260042     0.000968964399    -2.139786292139    15.994914619570
         H            3.158331260042    -0.006114035601     0.509081707861     1.007825032230
         H            1.007997260042    -0.004555035601     1.778697707861     1.007825032230
         H           -2.537315739958     1.505750964399    -0.442482292139     1.007825032230
         H           -3.690891739958     0.374165964399     0.456718707861     1.007825032230
         H           -3.485029739958     0.381718964399    -0.542521292139     1.007825032230
         C            3.107908260042     0.003833964399    -3.513074292139    12.000000000000
         H            4.044458260042     0.010431964399    -4.068728292139     1.007825032230
         H            2.538402260042    -0.887498035601    -3.772128292139     1.007825032230
         H            2.529162260042     0.890798964399    -3.766586292139     1.007825032230

  Running in c1 symmetry.

  Rotational constants: A =      0.06769  B =      0.01113  C =      0.01041 [cm^-1]
  Rotational constants: A =   2029.40567  B =    333.65506  C =    311.94718 [MHz]
  Nuclear repulsion =  877.699197871736942

  Charge       = 1
  Multiplicity = 1
  Electrons    = 102
  Nalpha       = 51
  Nbeta        = 51

  ==> Algorithm <==

  SCF Algorithm Type is DF.
  DIIS enabled.
  MOM disabled.
  Fractional occupation disabled.
  Guess Type is SAD.
  Energy threshold   = 1.00e-10
  Density threshold  = 1.00e-10
  Integral threshold = 1.00e-12

  ==> Primary Basis <==

  Basis Set: CC-PVDZ
    Blend: CC-PVDZ
    Number of shells: 135
    Number of basis functions: 281
    Number of Cartesian functions: 295
    Spherical Harmonics?: true
    Max angular momentum: 2

   => Loading Basis Set <=

    Name: (CC-PVDZ AUX)
    Role: JKFIT
    Keyword: DF_BASIS_SCF
    atoms 1-12, 28            entry C          line   121 file /home/maxbuskirk/.conda/envs/psifour/share/psi4/basis/cc-pvdz-jkfit.gbs 
    atoms 13-21, 23-27, 29-31 entry H          line    51 file /home/maxbuskirk/.conda/envs/psifour/share/psi4/basis/cc-pvdz-jkfit.gbs 
    atoms 22                  entry O          line   221 file /home/maxbuskirk/.conda/envs/psifour/share/psi4/basis/cc-pvdz-jkfit.gbs 

  ==> Integral Setup <==

  DFHelper Memory: AOs need 0.707 GiB; user supplied 22.352 GiB. Using in-core AOs.

  ==> MemDFJK: Density-Fitted J/K Matrices <==

    J tasked:                   Yes
    K tasked:                   Yes
    wK tasked:                   No
    OpenMP threads:               1
    Memory [MiB]:             22888
    Algorithm:                 Core
    Schwarz Cutoff:           1E-12
    Mask sparsity (%):      15.7166
    Fitting Condition:        1E-10

   => Auxiliary Basis Set <=

  Basis Set: (CC-PVDZ AUX)
    Blend: CC-PVDZ-JKFIT
    Number of shells: 489
    Number of basis functions: 1371
    Number of Cartesian functions: 1559
    Spherical Harmonics?: true
    Max angular momentum: 3

  Minimum eigenvalue in the overlap matrix is 3.2749874049E-04.
  Reciprocal condition number of the overlap matrix is 4.6496076993E-05.
    Using symmetric orthogonalization.

  ==> Pre-Iterations <==

  SCF Guess: Superposition of Atomic Densities via on-the-fly atomic UHF (no occupation information).

   -------------------------
    Irrep   Nso     Nmo    
   -------------------------
     A        281     281 
   -------------------------
    Total     281     281
   -------------------------

  ==> Iterations <==

                           Total Energy        Delta E     RMS |[F,P]|

   @DF-RHF iter SAD:  -576.97235513428473   -5.76972e+02   0.00000e+00 
   @DF-RHF iter   1:  -576.36806676626793    6.04288e-01   2.22260e-03 DIIS
   @DF-RHF iter   2:  -576.61508063469944   -2.47014e-01   9.28947e-04 DIIS
   @DF-RHF iter   3:  -576.65161174286186   -3.65311e-02   2.84959e-04 DIIS
   @DF-RHF iter   4:  -576.65619262729138   -4.58088e-03   9.45715e-05 DIIS
   @DF-RHF iter   5:  -576.65663304057898   -4.40413e-04   2.57631e-05 DIIS
   @DF-RHF iter   6:  -576.65667796435287   -4.49238e-05   8.15848e-06 DIIS
   @DF-RHF iter   7:  -576.65668411610352   -6.15175e-06   3.32876e-06 DIIS
   @DF-RHF iter   8:  -576.65668519258270   -1.07648e-06   1.15344e-06 DIIS
   @DF-RHF iter   9:  -576.65668538711373   -1.94531e-07   5.18353e-07 DIIS
   @DF-RHF iter  10:  -576.65668542502362   -3.79099e-08   2.26337e-07 DIIS
   @DF-RHF iter  11:  -576.65668543582308   -1.07995e-08   1.02904e-07 DIIS
   @DF-RHF iter  12:  -576.65668543807976   -2.25668e-09   4.20454e-08 DIIS
   @DF-RHF iter  13:  -576.65668543840650   -3.26736e-10   1.64901e-08 DIIS
   @DF-RHF iter  14:  -576.65668543845243   -4.59295e-11   5.11324e-09 DIIS
   @DF-RHF iter  15:  -576.65668543845686   -4.43379e-12   1.97132e-09 DIIS
   @DF-RHF iter  16:  -576.65668543845572    1.13687e-12   7.35879e-10 DIIS
   @DF-RHF iter  17:  -576.65668543845823   -2.50111e-12   3.04576e-10 DIIS
   @DF-RHF iter  18:  -576.65668543845743    7.95808e-13   1.32525e-10 DIIS
   @DF-RHF iter  19:  -576.65668543845675    6.82121e-13   6.12437e-11 DIIS
  Energy and wave function converged.


  ==> Post-Iterations <==

    Orbital Energies [Eh]
    ---------------------

    Doubly Occupied:                                                      

       1A    -20.688551     2A    -11.489949     3A    -11.463541  
       4A    -11.435017     5A    -11.420761     6A    -11.392716  
       7A    -11.387583     8A    -11.378816     9A    -11.377211  
      10A    -11.374534    11A    -11.373802    12A    -11.372397  
      13A    -11.357420    14A    -11.355215    15A     -1.516652  
      16A     -1.393888    17A     -1.269013    18A     -1.223525  
      19A     -1.162355    20A     -1.139519    21A     -1.128937  
      22A     -1.098313    23A     -1.045683    24A     -0.963815  
      25A     -0.960664    26A     -0.948632    27A     -0.908007  
      28A     -0.869053    29A     -0.845164    30A     -0.819192  
      31A     -0.783541    32A     -0.778056    33A     -0.754939  
      34A     -0.754071    35A     -0.747022    36A     -0.738311  
      37A     -0.707991    38A     -0.691033    39A     -0.684740  
      40A     -0.665733    41A     -0.654408    42A     -0.637347  
      43A     -0.631549    44A     -0.625042    45A     -0.620820  
      46A     -0.616278    47A     -0.590978    48A     -0.580247  
      49A     -0.565150    50A     -0.458547    51A     -0.429525  

    Virtual:                                                              

      52A     -0.126369    53A     -0.010171    54A      0.004365  
      55A      0.015005    56A      0.028554    57A      0.052919  
      58A      0.074880    59A      0.078981    60A      0.094483  
      61A      0.102110    62A      0.116194    63A      0.117724  
      64A      0.123612    65A      0.135982    66A      0.146106  
      67A      0.148899    68A      0.163616    69A      0.172062  
      70A      0.183088    71A      0.185530    72A      0.192681  
      73A      0.216564    74A      0.220409    75A      0.233975  
      76A      0.239319    77A      0.263436    78A      0.268764  
      79A      0.307658    80A      0.323864    81A      0.336959  
      82A      0.348047    83A      0.361783    84A      0.374550  
      85A      0.388726    86A      0.420828    87A      0.442402  
      88A      0.467328    89A      0.484246    90A      0.499984  
      91A      0.519562    92A      0.523572    93A      0.529689  
      94A      0.536310    95A      0.536972    96A      0.546621  
      97A      0.565325    98A      0.579018    99A      0.585113  
     100A      0.593146   101A      0.599115   102A      0.603997  
     103A      0.612545   104A      0.618600   105A      0.626054  
     106A      0.638187   107A      0.653350   108A      0.668318  
     109A      0.671758   110A      0.681830   111A      0.692026  
     112A      0.698170   113A      0.705021   114A      0.710062  
     115A      0.715065   116A      0.724229   117A      0.727047  
     118A      0.746369   119A      0.749677   120A      0.754457  
     121A      0.755856   122A      0.763418   123A      0.765751  
     124A      0.776578   125A      0.783522   126A      0.787802  
     127A      0.800737   128A      0.806068   129A      0.810350  
     130A      0.830494   131A      0.837216   132A      0.840424  
     133A      0.848840   134A      0.870481   135A      0.887599  
     136A      0.915632   137A      0.937010   138A      0.979144  
     139A      0.985565   140A      1.013683   141A      1.014684  
     142A      1.033883   143A      1.041330   144A      1.051106  
     145A      1.089624   146A      1.099945   147A      1.113856  
     148A      1.116583   149A      1.137832   150A      1.144434  
     151A      1.161540   152A      1.173148   153A      1.184137  
     154A      1.211398   155A      1.223888   156A      1.248704  
     157A      1.257683   158A      1.273762   159A      1.283958  
     160A      1.290408   161A      1.303239   162A      1.324970  
     163A      1.330503   164A      1.378280   165A      1.383732  
     166A      1.390836   167A      1.426369   168A      1.436666  
     169A      1.455335   170A      1.478876   171A      1.498763  
     172A      1.501403   173A      1.522925   174A      1.552161  
     175A      1.552930   176A      1.576351   177A      1.589693  
     178A      1.607784   179A      1.622015   180A      1.634177  
     181A      1.637830   182A      1.649881   183A      1.673169  
     184A      1.677487   185A      1.689820   186A      1.696815  
     187A      1.705930   188A      1.732506   189A      1.744347  
     190A      1.755078   191A      1.763157   192A      1.766163  
     193A      1.774633   194A      1.781670   195A      1.786676  
     196A      1.794386   197A      1.795807   198A      1.813867  
     199A      1.818334   200A      1.829079   201A      1.832924  
     202A      1.842182   203A      1.854105   204A      1.864619  
     205A      1.867070   206A      1.872800   207A      1.880799  
     208A      1.892868   209A      1.905614   210A      1.913077  
     211A      1.917808   212A      1.932751   213A      1.943212  
     214A      1.951173   215A      1.959843   216A      1.975517  
     217A      1.979456   218A      2.003535   219A      2.007768  
     220A      2.034824   221A      2.056222   222A      2.062034  
     223A      2.075039   224A      2.083590   225A      2.104916  
     226A      2.116103   227A      2.126344   228A      2.133965  
     229A      2.139872   230A      2.152484   231A      2.176845  
     232A      2.183093   233A      2.206938   234A      2.213206  
     235A      2.242646   236A      2.256171   237A      2.271222  
     238A      2.282555   239A      2.287470   240A      2.304153  
     241A      2.314346   242A      2.322235   243A      2.341419  
     244A      2.371971   245A      2.394673   246A      2.409612  
     247A      2.440657   248A      2.447983   249A      2.463850  
     250A      2.504120   251A      2.518138   252A      2.538591  
     253A      2.559173   254A      2.604206   255A      2.610744  
     256A      2.618490   257A      2.631719   258A      2.638099  
     259A      2.653202   260A      2.679262   261A      2.706719  
     262A      2.713513   263A      2.734731   264A      2.758531  
     265A      2.771425   266A      2.796662   267A      2.826912  
     268A      2.835815   269A      2.853043   270A      2.872184  
     271A      2.912096   272A      2.929947   273A      2.989730  
     274A      3.070351   275A      3.121694   276A      3.190493  
     277A      3.287469   278A      3.376015   279A      3.510901  
     280A      3.652685   281A      3.883382  

    Final Occupation by Irrep:
              A 
    DOCC [    51 ]

  @DF-RHF Final Energy:  -576.65668543845675

   => Energetics <=

    Nuclear Repulsion Energy =            877.6991978717369420
    One-Electron Energy =               -2508.9612605593056287
    Two-Electron Energy =                1054.6053772491118252
    Total Energy =                       -576.6566854384568614

Computation Completed


Properties will be evaluated at   0.000000,   0.000000,   0.000000 [a0]

Properties computed using the SCF density matrix

  Nuclear Dipole Moment: [e a0]
     X:   -10.6672      Y:    -0.4637      Z:     2.9749

  Electronic Dipole Moment: [e a0]
     X:     6.4305      Y:     1.1206      Z:    -2.5643

  Dipole Moment: [e a0]
     X:    -4.2367      Y:     0.6569      Z:     0.4107     Total:     4.3070

  Dipole Moment: [D]
     X:   -10.7687      Y:     1.6697      Z:     1.0439     Total:    10.9472


*** tstop() called on skystd39.palmetto.clemson.edu at Thu Oct 14 16:36:13 2021
Module time:
	user time   =      15.64 seconds =       0.26 minutes
	system time =       0.85 seconds =       0.01 minutes
	total time  =         16 seconds =       0.27 minutes
Total time:
	user time   =      15.64 seconds =       0.26 minutes
	system time =       0.85 seconds =       0.01 minutes
	total time  =         16 seconds =       0.27 minutes

*** tstart() called on skystd39.palmetto.clemson.edu
*** at Thu Oct 14 16:36:13 2021


  //>>>>>>>>>>>>>>>>>>>>>>>>>>>>>>>>>>>//
  //               DFMP2               //
  //<<<<<<<<<<<<<<<<<<<<<<<<<<<<<<<<<<<//

   => Loading Basis Set <=

    Name: (CC-PVDZ AUX)
    Role: RIFIT
    Keyword: DF_BASIS_MP2
    atoms 1-12, 28            entry C          line   159 file /home/maxbuskirk/.conda/envs/psifour/share/psi4/basis/cc-pvdz-ri.gbs 
    atoms 13-21, 23-27, 29-31 entry H          line    19 file /home/maxbuskirk/.conda/envs/psifour/share/psi4/basis/cc-pvdz-ri.gbs 
    atoms 22                  entry O          line   235 file /home/maxbuskirk/.conda/envs/psifour/share/psi4/basis/cc-pvdz-ri.gbs 

	 --------------------------------------------------------
	                          DF-MP2                         
	      2nd-Order Density-Fitted Moller-Plesset Theory     
	              RMP2 Wavefunction,   1 Threads             
	                                                         
	        Rob Parrish, Justin Turney, Andy Simmonett,      
	           Ed Hohenstein, and C. David Sherrill          
	 --------------------------------------------------------

   => Auxiliary Basis Set <=

  Basis Set: (CC-PVDZ AUX)
    Blend: CC-PVDZ-RI
    Number of shells: 354
    Number of basis functions: 1022
    Number of Cartesian functions: 1179
    Spherical Harmonics?: true
    Max angular momentum: 3

	 --------------------------------------------------------
	                 NBF =   281, NAUX =  1022
	 --------------------------------------------------------
	   CLASS    FOCC     OCC    AOCC    AVIR     VIR    FVIR
	   PAIRS       0      51      51     230     230       0
	 --------------------------------------------------------

  DFHelper Memory: AOs need 0.707 GiB; user supplied 22.352 GiB. Using in-core AOs.


         ------------------------------------------------------------
                                     CPHF                           
                                  Rob Parrish                       
         ------------------------------------------------------------

  ==> Geometry <==

    Molecular point group: c1
    Full point group: C1

    Geometry (in Angstrom), charge = 1, multiplicity = 1:

       Center              X                  Y                   Z               Mass       
    ------------   -----------------  -----------------  -----------------  -----------------
         C           -0.240130739958    -0.014376035601    -1.400745292139    12.000000000000
         C           -0.240130739958    -0.014376035601     0.007413707861    12.000000000000
         C            0.998259260042    -0.014376035601     0.683194707861    12.000000000000
         C            2.206040260042    -0.011705035601    -0.030230292139    12.000000000000
         C            2.193258260042    -0.007392035601    -1.435650292139    12.000000000000
         C            0.966828260042    -0.007971035601    -2.119089292139    12.000000000000
         C           -1.512905739958    -0.060321035601     0.786619707861    12.000000000000
         C           -1.868577739958    -1.350142035601     1.549896707861    12.000000000000
         C           -1.977509739958    -0.913957035601     3.024375707861    12.000000000000
         C           -2.539014739958     0.521658964399     2.967219707861    12.000000000000
         C           -1.955055739958     1.102702964399     1.679628707861    12.000000000000
         C           -2.687197739958     0.806668964399     0.385143707861    12.000000000000
         H           -1.345339739958     2.010389964399     1.716685707861     1.007825032230
         H           -2.251099739958     1.115182964399     3.849469707861     1.007825032230
         H           -3.643035739958     0.508751964399     2.927249707861     1.007825032230
         H           -0.962852739958    -0.880908035601     3.459621707861     1.007825032230
         H           -2.583822739958    -1.599229035601     3.640728707861     1.007825032230
         H           -1.099576739958    -2.123626035601     1.396451707861     1.007825032230
         H           -2.828705739958    -1.761592035601     1.189336707861     1.007825032230
         H           -1.196297739958    -0.022626035601    -1.933879292139     1.007825032230
         H            0.949599260042    -0.005654035601    -3.213373292139     1.007825032230
         O            3.380070260042     0.000968964399    -2.139786292139    15.994914619570
         H            3.158331260042    -0.006114035601     0.509081707861     1.007825032230
         H            1.007997260042    -0.004555035601     1.778697707861     1.007825032230
         H           -2.537315739958     1.505750964399    -0.442482292139     1.007825032230
         H           -3.690891739958     0.374165964399     0.456718707861     1.007825032230
         H           -3.485029739958     0.381718964399    -0.542521292139     1.007825032230
         C            3.107908260042     0.003833964399    -3.513074292139    12.000000000000
         H            4.044458260042     0.010431964399    -4.068728292139     1.007825032230
         H            2.538402260042    -0.887498035601    -3.772128292139     1.007825032230
         H            2.529162260042     0.890798964399    -3.766586292139     1.007825032230

  Nuclear repulsion =  877.699197871736942
  Reference energy  = -576.656685438456748

  ==> Basis Set <==

  Basis Set: CC-PVDZ
    Blend: CC-PVDZ
    Number of shells: 135
    Number of basis functions: 281
    Number of Cartesian functions: 295
    Spherical Harmonics?: true
    Max angular momentum: 2

  ==> CGRSolver (by Rob Parrish) <==

   Number of roots    =         1
   Preconditioning    =    JACOBI
   Convergence cutoff =     1E-06
   Maximum iterations =       100

  ==> CPHFRHamiltonian (by Rob Parrish) <== 

  ==> MemDFJK: Density-Fitted J/K Matrices <==

    J tasked:                   Yes
    K tasked:                   Yes
    wK tasked:                   No
    OpenMP threads:               1
    Memory [MiB]:             22888
    Algorithm:                 Core
    Schwarz Cutoff:           1E-12
    Mask sparsity (%):      15.7166
    Fitting Condition:        1E-10

   => Auxiliary Basis Set <=

  Basis Set: (CC-PVDZ AUX)
    Blend: CC-PVDZ-JKFIT
    Number of shells: 489
    Number of basis functions: 1371
    Number of Cartesian functions: 1559
    Spherical Harmonics?: true
    Max angular momentum: 3

  ==> CPHF Iterations <==

  => Iterations <=

             Iter  Converged  Remaining    Residual
  CGR           1          0          1   1.209E-01
  CGR           2          0          1   2.442E-02
  CGR           3          0          1   1.183E-02
  CGR           4          0          1   4.317E-03
  CGR           5          0          1   2.268E-03
  CGR           6          0          1   1.057E-03
  CGR           7          0          1   4.001E-04
  CGR           8          0          1   1.382E-04
  CGR           9          0          1   5.083E-05
  CGR          10          0          1   1.717E-05
  CGR          11          0          1   6.040E-06
  CGR          12          0          1   2.053E-06
  CGR          13          1          0   7.476E-07

    CGRSolver converged.

  ==> DFCorrGrad: Density-Fitted Correlated Gradients <==

    OpenMP threads:              1
    Integrals threads:           1
    Memory [GiB]:           22.352
    Schwarz Cutoff:          0E+00
    Fitting Condition:       1E-10

   => Auxiliary Basis Set <=

  Basis Set: (CC-PVDZ AUX)
    Blend: CC-PVDZ-JKFIT
    Number of shells: 489
    Number of basis functions: 1371
    Number of Cartesian functions: 1559
    Spherical Harmonics?: true
    Max angular momentum: 3

	-----------------------------------------------------------
	 ==================> DF-MP2 Energies <==================== 
	-----------------------------------------------------------
	 Reference Energy          =    -576.6566854384567478 [Eh]
	 Singles Energy            =      -0.0000000000000000 [Eh]
	 Same-Spin Energy          =      -0.5203304231087236 [Eh]
	 Opposite-Spin Energy      =      -1.4739206002989782 [Eh]
	 Correlation Energy        =      -1.9942510234077018 [Eh]
	 Total Energy              =    -578.6509364618644895 [Eh]
	-----------------------------------------------------------
	 ================> DF-SCS-MP2 Energies <================== 
	-----------------------------------------------------------
	 SCS Same-Spin Scale       =       0.3333333333333333 [-]
	 SCS Opposite-Spin Scale   =       1.2000000000000000 [-]
	 SCS Same-Spin Energy      =      -0.1734434743695745 [Eh]
	 SCS Opposite-Spin Energy  =      -1.7687047203587738 [Eh]
	 SCS Correlation Energy    =      -1.9421481947283483 [Eh]
	 SCS Total Energy          =    -578.5988336331851087 [Eh]
	-----------------------------------------------------------


  -Total Gradient:
     Atom            X                  Y                   Z
    ------   -----------------  -----------------  -----------------
       1       -0.000743278957    -0.000512675073    -0.006465146266
       2        0.003332831542    -0.005256337280     0.009388425149
       3       -0.002055984440    -0.000710088722     0.000788669036
       4       -0.000200712050     0.000017990024    -0.008580563157
       5       -0.014265332494     0.000075893086     0.012953843324
       6        0.016258184103     0.000336026286     0.001153028266
       7       -0.008601174465    -0.000917261507    -0.006654513345
       8        0.006044474319     0.000642721211    -0.003418158042
       9       -0.002163039354     0.000149817263     0.000418226982
      10        0.006025684279     0.002288988555    -0.004576426988
      11       -0.013065598170     0.017759435835    -0.030868428728
      12       -0.016926471861     0.010462020924     0.079448198397
      13        0.008081828077    -0.006573341203     0.007764637976
      14        0.000398716515    -0.001433124425     0.002803448132
      15       -0.001199100126    -0.001796617671    -0.001323702092
      16        0.000855576221     0.000446945396     0.000164581646
      17       -0.000532077139    -0.001901139136     0.000986808593
      18        0.001094117000    -0.002476861411     0.002309022553
      19        0.000527399206     0.001978028738     0.000079797678
      20       -0.000606184359     0.000469562788     0.003382894114
      21        0.007823203711     0.000045736669    -0.009368105935
      22        0.015384998900     0.000112479390    -0.029618327702
      23       -0.000164706363     0.000020086965     0.002165656439
      24       -0.002388750290     0.000373889906     0.000014067158
      25       -0.005714399444    -0.018724952207    -0.000490590659
      26        0.045977797975     0.006095981977    -0.030328783529
      27       -0.026182791014    -0.000875147572    -0.020845342851
      28       -0.013195179468     0.000011519217     0.014916510967
      29       -0.007207096718    -0.000028298485    -0.001813079171
      30        0.001687686906     0.007214672399     0.007815303779
      31        0.001719377959    -0.007295951935     0.007798048274


*** tstop() called on skystd39.palmetto.clemson.edu at Thu Oct 14 16:37:31 2021
Module time:
	user time   =      73.15 seconds =       1.22 minutes
	system time =       3.93 seconds =       0.07 minutes
	total time  =         78 seconds =       1.30 minutes
Total time:
	user time   =      88.79 seconds =       1.48 minutes
	system time =       4.78 seconds =       0.08 minutes
	total time  =         94 seconds =       1.57 minutes

			-----------------------------------------
			 OPTKING 2.0: for geometry optimizations 
			  - R.A. King,  Bethel University        
			-----------------------------------------

	Internal coordinates to be generated automatically.
	Detected frag 1 with atoms:  1 2 3 4 5 6 7 8 9 10 11 12 13 14 15 16 17 18 19 20
	 21 22 23 24 25 26 27 28 29 30 31
	---Fragment 1 Bond Connectivity---
	 1 : 2 6 20
	 2 : 1 3 7
	 3 : 2 4 24
	 4 : 3 5 23
	 5 : 4 6 22
	 6 : 1 5 21
	 7 : 2 8 11 12
	 8 : 7 9 18 19
	 9 : 8 10 16 17
	 10 : 9 11 14 15
	 11 : 7 10 12 13
	 12 : 7 11 25 26 27
	 13 : 11
	 14 : 10
	 15 : 10
	 16 : 9
	 17 : 9
	 18 : 8
	 19 : 8
	 20 : 1
	 21 : 6
	 22 : 5 28
	 23 : 4
	 24 : 3
	 25 : 12
	 26 : 12
	 27 : 12
	 28 : 22 29 30 31
	 29 : 28
	 30 : 28
	 31 : 28

	---Fragment 1 Geometry and Gradient---
	 C          -0.4537813328       -0.0271667701       -2.6470249737
	 C          -0.4537813328       -0.0271667701        0.0140098774
	 C           1.8864366037       -0.0271667701        1.2910508882
	 C           4.1688119132       -0.0221193116       -0.0571269728
	 C           4.1446574339       -0.0139689228       -2.7129858641
	 C           1.8270406218       -0.0150630742       -4.0044983975
	 C          -2.8589775022       -0.1139902369        1.4864958127
	 C          -3.5311001726       -2.5513986778        2.9288803006
	 C          -3.7369518189       -1.7271284877        5.7152417883
	 C          -4.7980424870        0.9857925736        5.6072326019
	 C          -3.6945199085        2.0838066004        3.1740382503
	 C          -5.0780677735        1.5243834166        0.7278161268
	 H          -2.5423236542        3.7990864381        3.2440658313
	 H          -4.2539619896        2.1073903825        7.2744434761
	 H          -6.8843398138        0.9614018785        5.5317002487
	 H          -1.8195279777       -1.6646749290        6.5377375255
	 H          -4.8827173353       -3.0221048892        6.8799801549
	 H          -2.0778988924       -4.0130716002        2.6389112753
	 H          -5.3454791380       -3.3289264921        2.2475206488
	 H          -2.2606750930       -0.0427570106       -3.6545022218
	 H           1.7944825304       -0.0106845788       -6.0723954610
	 O           6.3874070763        0.0018310773       -4.0436100592
	 H           5.9683810950       -0.0115538528        0.9620250033
	 H           1.9048387567       -0.0086077698        3.3612515278
	 H          -4.7948318423        2.8454569359       -0.8361703475
	 H          -6.9747745472        0.7070711982        0.8630732742
	 H          -6.5857517476        0.7213442996       -1.0252166594
	 C           5.8730954345        0.0072451427       -6.6387482705
	 H           7.6429184373        0.0197135557       -7.6887821510
	 H           4.7968850677       -1.6771282242       -7.1282893822
	 H           4.7794239983        1.6833660756       -7.1178165200
	            -0.0007432790       -0.0005126751       -0.0064651463
	             0.0033328315       -0.0052563373        0.0093884251
	            -0.0020559844       -0.0007100887        0.0007886690
	            -0.0002007121        0.0000179900       -0.0085805632
	            -0.0142653325        0.0000758931        0.0129538433
	             0.0162581841        0.0003360263        0.0011530283
	            -0.0086011745       -0.0009172615       -0.0066545133
	             0.0060444743        0.0006427212       -0.0034181580
	            -0.0021630394        0.0001498173        0.0004182270
	             0.0060256843        0.0022889886       -0.0045764270
	            -0.0130655982        0.0177594358       -0.0308684287
	            -0.0169264719        0.0104620209        0.0794481984
	             0.0080818281       -0.0065733412        0.0077646380
	             0.0003987165       -0.0014331244        0.0028034481
	            -0.0011991001       -0.0017966177       -0.0013237021
	             0.0008555762        0.0004469454        0.0001645816
	            -0.0005320771       -0.0019011391        0.0009868086
	             0.0010941170       -0.0024768614        0.0023090226
	             0.0005273992        0.0019780287        0.0000797977
	            -0.0006061844        0.0004695628        0.0033828941
	             0.0078232037        0.0000457367       -0.0093681059
	             0.0153849989        0.0001124794       -0.0296183277
	            -0.0001647064        0.0000200870        0.0021656564
	            -0.0023887503        0.0003738899        0.0000140672
	            -0.0057143994       -0.0187249522       -0.0004905907
	             0.0459777980        0.0060959820       -0.0303287835
	            -0.0261827910       -0.0008751476       -0.0208453429
	            -0.0131951795        0.0000115192        0.0149165110
	            -0.0072070967       -0.0000282985       -0.0018130792
	             0.0016876869        0.0072146724        0.0078153038
	             0.0017193780       -0.0072959519        0.0077980483

	Previous optimization step data not found.  Starting new optimization.

	---Fragment 1 Intrafragment Coordinates---
	 - Coordinate -           - BOHR/RAD -       - ANG/DEG -
	 R(1,2)           =         2.661035	       1.408159
	 R(1,6)           =         2.654247	       1.404567
	 R(1,20)          =         2.068845	       1.094785
	 R(2,3)           =         2.665981	       1.410776
	 R(2,7)           =         2.821475	       1.493060
	 R(3,4)           =         2.650820	       1.402753
	 R(3,24)          =         2.070366	       1.095590
	 R(4,5)           =         2.655981	       1.405485
	 R(4,23)          =         2.068147	       1.094416
	 R(5,6)           =         2.653178	       1.404001
	 R(5,22)          =         2.607822	       1.380000
	 R(6,21)          =         2.068158	       1.094422
	 R(7,8)           =         2.910873	       1.540368
	 R(7,11)          =         2.894174	       1.531531
	 R(7,12)          =         2.860808	       1.513875
	 R(8,9)           =         2.913006	       1.541497
	 R(8,18)          =         2.081433	       1.101447
	 R(8,19)          =         2.088246	       1.105052
	 R(9,10)          =         2.915051	       1.542578
	 R(9,16)          =         2.087322	       1.104563
	 R(9,17)          =         2.084792	       1.103224
	 R(10,11)         =         2.888569	       1.528565
	 R(10,14)         =         2.081729	       1.101604
	 R(10,15)         =         2.087807	       1.104820
	 R(11,12)         =         2.865512	       1.516364
	 R(11,13)         =         2.067521	       1.094085
	 R(12,25)         =         2.066764	       1.093684
	 R(12,26)         =         2.069732	       1.095255
	 R(12,27)         =         2.447674	       1.295253
	 R(22,28)         =         2.645617	       1.400000
	 R(28,29)         =         2.057912	       1.089000
	 R(28,30)         =         2.057910	       1.088999
	 R(28,31)         =         2.057913	       1.089001
	 B(1,2,3)         =         2.070327	     118.620997
	 B(1,2,7)         =         2.119856	     121.458788
	 B(1,6,5)         =         2.096330	     120.110874
	 B(1,6,21)        =         2.091916	     119.857977
	 B(2,1,6)         =         2.107650	     120.759421
	 B(2,1,20)        =         2.079420	     119.142001
	 B(2,3,4)         =         2.108515	     120.808990
	 B(2,3,24)        =         2.079193	     119.129007
	 B(2,7,8)         =         2.072823	     118.764025
	 B(2,7,11)        =         2.125907	     121.805526
	 B(2,7,12)        =         2.100429	     120.345701
	 B(3,2,7)         =         2.092440	     119.888000
	 B(3,4,5)         =         2.095251	     120.049043
	 B(3,4,23)        =         2.092754	     119.905975
	 B(4,3,24)        =         2.095410	     120.058136
	 B(4,5,6)         =         2.088286	     119.649965
	 B(4,5,22)        =         2.097189	     120.160057
	 B(5,4,23)        =         2.095157	     120.043679
	 B(5,6,21)        =         2.094936	     120.031012
	 B(5,22,28)       =         1.910633	     109.471229
	 B(6,1,20)        =         2.096111	     120.098304
	 B(6,5,22)        =         2.097707	     120.189753
	 B(7,8,9)         =         1.826941	     104.676012
	 B(7,8,18)        =         1.936687	     110.963967
	 B(7,8,19)        =         1.929130	     110.530980
	 B(7,11,10)       =         1.888927	     108.227565
	 B(7,11,12)       =         1.039531	      59.560711
	 B(7,11,13)       =         2.081594	     119.266540
	 B(7,12,11)       =         1.059727	      60.717866
	 B(7,12,25)       =         2.049296	     117.416011
	 B(7,12,26)       =         2.057098	     117.863016
	 B(7,12,27)       =         2.071269	     118.674982
	 B(8,7,11)        =         1.854884	     106.277040
	 B(8,7,12)        =         2.017337	     115.584897
	 B(8,9,10)        =         1.827220	     104.692002
	 B(8,9,16)        =         1.897016	     108.690991
	 B(8,9,17)        =         1.979552	     113.419998
	 B(9,8,18)        =         1.962000	     112.414302
	 B(9,8,19)        =         1.934840	     110.858171
	 B(9,10,11)       =         1.819261	     104.235991
	 B(9,10,14)       =         1.956933	     112.123993
	 B(9,10,15)       =         1.932865	     110.744982
	 B(10,9,16)       =         1.897719	     108.731301
	 B(10,9,17)       =         1.980931	     113.498999
	 B(10,11,12)      =         2.049278	     117.414996
	 B(10,11,13)      =         2.094085	     119.982231
	 B(11,7,12)       =         1.042335	      59.721423
	 B(11,10,14)      =         1.949773	     111.713789
	 B(11,10,15)      =         1.934482	     110.837637
	 B(11,12,25)      =         2.043223	     117.068036
	 B(11,12,26)      =         2.053041	     117.630561
	 B(11,12,27)      =         2.908091	     166.621351
	 B(12,11,13)      =         2.048737	     117.384004
	 B(14,10,15)      =         1.871758	     107.243861
	 B(16,9,17)       =         1.878939	     107.655246
	 B(18,8,19)       =         1.875159	     107.438672
	 B(22,28,29)      =         1.910632	     109.471163
	 B(22,28,30)      =         1.910634	     109.471237
	 B(22,28,31)      =         1.910632	     109.471162
	 B(25,12,26)      =         2.012468	     115.305919
	 B(25,12,27)      =         1.320336	      75.649663
	 B(26,12,27)      =         0.866858	      49.667332
	 B(29,28,30)      =         1.910634	     109.471265
	 B(29,28,31)      =         1.910633	     109.471233
	 B(30,28,31)      =         1.910634	     109.471264
	 D(1,2,3,4)       =         0.002217	       0.127023
	 D(1,2,3,24)      =         3.131330	     179.412021
	 D(1,2,7,8)       =         1.903733	     109.075866
	 D(1,2,7,11)      =        -2.009659	    -115.144974
	 D(1,2,7,12)      =        -0.769268	     -44.075804
	 D(1,6,5,4)       =        -0.001267	      -0.072568
	 D(1,6,5,22)      =        -3.139855	    -179.900465
	 D(2,1,6,5)       =         0.004882	       0.279712
	 D(2,1,6,21)      =        -3.139055	    -179.854616
	 D(2,3,4,5)       =         0.001308	       0.074953
	 D(2,3,4,23)      =         3.135659	     179.660022
	 D(2,7,8,9)       =         2.100957	     120.375986
	 D(2,7,8,18)      =        -0.019556	      -1.120483
	 D(2,7,8,19)      =        -2.098069	    -120.210485
	 D(2,7,11,10)     =        -2.431542	    -139.317107
	 D(2,7,11,12)     =         1.903192	     109.044880
	 D(2,7,11,13)     =         0.046268	       2.650975
	 D(2,7,12,11)     =        -1.944837	    -111.430950
	 D(2,7,12,25)     =        -0.072649	      -4.162498
	 D(2,7,12,26)     =         2.457625	     140.811515
	 D(2,7,12,27)     =         1.463589	      83.857495
	 D(3,2,1,6)       =        -0.005307	      -0.304050
	 D(3,2,1,20)      =         3.132965	     179.505653
	 D(3,2,7,8)       =        -1.201327	     -68.830973
	 D(3,2,7,11)      =         1.168466	      66.948187
	 D(3,2,7,12)      =         2.408857	     138.017357
	 D(3,4,5,6)       =        -0.001797	      -0.102948
	 D(3,4,5,22)      =         3.136793	     179.725001
	 D(4,3,2,7)       =         3.108309	     178.093004
	 D(4,5,6,21)      =        -3.140511	    -179.938005
	 D(4,5,22,28)     =         3.141593	     180.000000
	 D(5,4,3,24)      =        -3.127690	    -179.203428
	 D(5,6,1,20)      =        -3.133358	    -179.528176
	 D(5,22,28,29)    =         3.141593	     180.000000
	 D(5,22,28,30)    =        -1.047197	     -59.999976
	 D(5,22,28,31)    =         1.047198	      60.000051
	 D(6,1,2,7)       =        -3.110817	    -178.236668
	 D(6,5,4,23)      =        -3.136137	    -179.687441
	 D(6,5,22,28)     =        -0.003019	      -0.172991
	 D(7,2,1,20)      =         0.027455	       1.573035
	 D(7,2,3,24)      =        -0.045763	      -2.621999
	 D(7,8,9,10)      =         0.589415	      33.771009
	 D(7,8,9,16)      =        -1.436057	     -82.280006
	 D(7,8,9,17)      =         2.757969	     158.020011
	 D(7,11,10,9)     =         0.342649	      19.632339
	 D(7,11,10,14)    =         2.459421	     140.914464
	 D(7,11,10,15)    =        -1.737453	     -99.548724
	 D(7,11,12,25)    =        -1.882074	    -107.834882
	 D(7,11,12,26)    =         1.887313	     108.135088
	 D(7,11,12,27)    =         1.590634	      91.136609
	 D(7,12,11,10)    =        -1.674893	     -95.964286
	 D(7,12,11,13)    =         1.911554	     109.524001
	 D(8,7,11,10)     =         0.019582	       1.121989
	 D(8,7,11,12)     =        -1.928869	    -110.516024
	 D(8,7,11,13)     =         2.497393	     143.090070
	 D(8,7,12,11)     =         1.651178	      94.605518
	 D(8,7,12,25)     =        -2.759820	    -158.126030
	 D(8,7,12,26)     =        -0.229546	     -13.152017
	 D(8,7,12,27)     =        -1.223581	     -70.106038
	 D(8,9,10,11)     =        -0.573603	     -32.865004
	 D(8,9,10,14)     =        -2.685608	    -153.873999
	 D(8,9,10,15)     =         1.507597	      86.378974
	 D(9,8,7,11)      =        -0.375138	     -21.493819
	 D(9,8,7,12)      =        -1.487483	     -85.226516
	 D(9,10,11,12)    =         1.468886	      84.160990
	 D(9,10,11,13)    =        -2.129574	    -122.015576
	 D(10,9,8,18)     =         2.693184	     154.308062
	 D(10,9,8,19)     =        -1.490900	     -85.422298
	 D(10,11,7,12)    =         1.948451	     111.638013
	 D(10,11,12,25)   =         2.726219	     156.200832
	 D(10,11,12,26)   =         0.212421	      12.170802
	 D(10,11,12,27)   =        -0.084259	      -4.827677
	 D(11,7,8,18)     =        -2.495651	    -142.990288
	 D(11,7,8,19)     =         1.709021	      97.919710
	 D(11,7,12,25)    =         1.872188	     107.268451
	 D(11,7,12,26)    =        -1.880724	    -107.757535
	 D(11,7,12,27)    =        -2.874759	    -164.711556
	 D(11,10,9,16)    =         1.451382	      83.158064
	 D(11,10,9,17)    =        -2.741277	    -157.063604
	 D(12,7,8,18)     =         2.675189	     153.277015
	 D(12,7,8,19)     =         0.596676	      34.187013
	 D(12,7,11,13)    =        -1.856924	    -106.393905
	 D(12,11,10,14)   =        -2.697527	    -154.556885
	 D(12,11,10,15)   =        -0.611216	     -35.020073
	 D(13,11,10,14)   =        -0.012801	      -0.733451
	 D(13,11,10,15)   =         2.073510	     118.803361
	 D(13,11,12,25)   =         0.029481	       1.689118
	 D(13,11,12,26)   =        -2.484318	    -142.340911
	 D(13,11,12,27)   =        -2.780997	    -159.339390
	 D(14,10,9,16)    =        -0.660623	     -37.850931
	 D(14,10,9,17)    =         1.429903	      81.927401
	 D(15,10,9,16)    =        -2.750603	    -157.597958
	 D(15,10,9,17)    =        -0.660077	     -37.819626
	 D(16,9,8,18)     =         0.667711	      38.257048
	 D(16,9,8,19)     =         2.766813	     158.526687
	 D(17,9,8,18)     =        -1.421447	     -81.442936
	 D(17,9,8,19)     =         0.677654	      38.826704
	 D(20,1,6,21)     =         0.005890	       0.337495
	 D(21,6,5,22)     =         0.004086	       0.234098
	 D(22,5,4,23)     =         0.002452	       0.140507
	 D(23,4,3,24)     =         0.006661	       0.381641

	Current energy   :      -578.6509364619

	Generating empirical Hessian (Schlegel '84) for each fragment.
	Taking PRFO optimization step.
	Maximizing along 1 lowest eigenvalue of Hessian.

 RFO min eigenvalues
 -0.061994 -0.000000 -0.000000 -0.000000 -0.000000 -0.000000 -0.000000 -0.000000
 -0.000000 -0.000000 -0.000000 -0.000000 -0.000000 -0.000000 -0.000000 -0.000000
 -0.000000 -0.000000 -0.000000 -0.000000 -0.000000 -0.000000 -0.000000 -0.000000
 -0.000000 -0.000000 -0.000000 -0.000000 -0.000000 -0.000000 -0.000000 -0.000000
 -0.000000 -0.000000 -0.000000 -0.000000 -0.000000 -0.000000 -0.000000 -0.000000
 -0.000000 -0.000000 -0.000000 -0.000000 -0.000000 -0.000000 -0.000000 -0.000000
 -0.000000 -0.000000 -0.000000 -0.000000 -0.000000 -0.000000 -0.000000 -0.000000
 -0.000000  0.000000  0.000000  0.000000  0.000000  0.000000  0.000000  0.000000
  0.000000  0.000000  0.000000  0.000000  0.000000  0.000000  0.000000  0.000000
  0.000000  0.000000  0.000000  0.000000  0.000000  0.000000  0.000000  0.000000
  0.000000  0.000000  0.000000  0.000000  0.000000  0.000000  0.000000  0.000000
  0.000000  0.000000  0.000000  0.000000  0.000000  0.000000  0.000000  0.000000
  0.000000  0.000000  0.000000  0.000000  0.000000  0.000000  0.000000  0.000000
  0.000000  0.000000  0.000000  0.000000  0.000000  0.000000  0.000000  0.000000
  0.003409  0.004946  0.005489  0.005867  0.007507  0.007591  0.012059  0.012456
  0.015091  0.015744  0.017009  0.017273  0.017349  0.017505  0.017565  0.017609
  0.017656  0.020708  0.027705  0.028904  0.031646  0.037901  0.043430  0.050996
  0.053968  0.058812  0.061203  0.068937  0.069857  0.070218  0.074604  0.080250
  0.083909  0.091787  0.096355  0.100139  0.100364  0.101213  0.105629  0.110770
  0.159988  0.159996  0.159999  0.160000  0.160000  0.160000  0.161347  0.168118
  0.190858  0.201922  0.204999  0.220058  0.229730  0.240012  0.249825  0.249999
  0.263968  0.266847  0.276385  0.285334  0.290823  0.302051  0.331174  0.331299
  0.331551  0.331827  0.333289  0.335058  0.335235  0.341745  0.342654  0.343022
  0.343072  0.343447  0.343774  0.348275  0.349284  0.349285  0.354061  0.407572
  0.409663  0.442500  0.445215  0.448902  0.450605  0.457971  0.491025

 RFO max eigenvalues
 -0.000000  0.000000
	Change in coordinate exceeds step limit of    0.50000.
	Scaling displacements by    0.84633
	|RFO target step|  :        0.5000000000
	RFO gradient       :       -0.1049337670
	RFO hessian        :        0.1308100712
	Projected Delta(E) :       -0.0288924997

	Back-transformation to cartesian coordinates...
	Could not converge backtransformation.
	Using first guess instead.

	--- Internal Coordinate Step in ANG or DEG, aJ/ANG or AJ/DEG ---
	 ---------------------------------------------------------------------------
	   Coordinate                Previous        Force       Change         New 
	   ----------                --------       ------       ------       ------
	    1 R(1,2)          =      1.408159    -0.028800    -0.002428     1.405731
	    2 R(1,6)          =      1.404567    -0.006922     0.000836     1.405403
	    3 R(1,20)         =      1.094785     0.009240     0.001650     1.096435
	    4 R(2,3)          =      1.410776    -0.013908    -0.001124     1.409652
	    5 R(2,7)          =      1.493060    -0.016996    -0.000897     1.492164
	    6 R(3,4)          =      1.402753    -0.059512    -0.005539     1.397215
	    7 R(3,24)         =      1.095590     0.000031     0.001195     1.096785
	    8 R(4,5)          =      1.405485     0.035576     0.004326     1.409810
	    9 R(4,23)         =      1.094416    -0.007612    -0.000257     1.094159
	   10 R(5,6)          =      1.404001     0.136768     0.016317     1.420318
	   11 R(5,22)         =      1.380000     0.007618     0.006266     1.386266
	   12 R(6,21)         =      1.094422    -0.076158    -0.007202     1.087220
	   13 R(7,8)          =      1.540368     0.020086     0.003516     1.543884
	   14 R(7,11)         =      1.531531     0.030164     0.002901     1.534431
	   15 R(7,12)         =      1.513875    -0.006882    -0.001955     1.511919
	   16 R(8,9)          =      1.541497     0.010812     0.002182     1.543679
	   17 R(8,18)         =      1.101447    -0.017973    -0.001944     1.099503
	   18 R(8,19)         =      1.105052     0.010057     0.002007     1.107059
	   19 R(9,10)         =      1.542578    -0.006764    -0.000803     1.541775
	   20 R(9,16)         =      1.104563    -0.007120    -0.000370     1.104194
	   21 R(9,17)         =      1.103224    -0.016680    -0.001937     1.101288
	   22 R(10,11)        =      1.528565     0.010368     0.001912     1.530477
	   23 R(10,14)        =      1.101604    -0.012995    -0.001206     1.100398
	   24 R(10,15)        =      1.104820    -0.010439    -0.000863     1.103957
	   25 R(11,12)        =      1.516364     0.086766     0.016455     1.532819
	   26 R(11,13)        =      1.094085     0.005657     0.001551     1.095636
	   27 R(12,25)        =      1.093684     0.102002     0.014584     1.108268
	   28 R(12,26)        =      1.095255     0.383293     0.056669     1.151924
	   29 R(12,27)        =      1.295253    -0.258237    -0.055491     1.239762
	   30 R(22,28)        =      1.400000     0.204857     0.090401     1.490401
	   31 R(28,29)        =      1.089000     0.043445     0.079601     1.168601
	   32 R(28,30)        =      1.088999     0.071239     0.037564     1.126563
	   33 R(28,31)        =      1.089001     0.071442     0.038405     1.127405
	   34 B(1,2,3)        =    118.620997     0.000075    -0.006110   118.614887
	   35 B(1,2,7)        =    121.458788     0.000184     0.452538   121.911327
	   36 B(1,6,5)        =    120.110874    -0.000071    -0.044347   120.066527
	   37 B(1,6,21)       =    119.857977    -0.000592    -1.824443   118.033534
	   38 B(2,1,6)        =    120.759421     0.000179     0.388893   121.148315
	   39 B(2,1,20)       =    119.142001     0.000166     0.542733   119.684733
	   40 B(2,3,4)        =    120.808990     0.000014    -0.160507   120.648483
	   41 B(2,3,24)       =    119.129007     0.000181     0.613107   119.742114
	   42 B(2,7,8)        =    118.764025     0.000432     1.191905   119.955930
	   43 B(2,7,11)       =    121.805526    -0.000078     0.093828   121.899354
	   44 B(2,7,12)       =    120.345701    -0.000431    -1.419193   118.926508
	   45 B(3,2,7)        =    119.888000    -0.000259    -0.450740   119.437260
	   46 B(3,4,5)        =    120.049043     0.000479     1.060613   121.109657
	   47 B(3,4,23)       =    119.905975    -0.000085    -0.088087   119.817888
	   48 B(4,3,24)       =    120.058136    -0.000195    -0.450965   119.607171
	   49 B(4,5,6)        =    119.649965    -0.000676    -1.238284   118.411680
	   50 B(4,5,22)       =    120.160057    -0.003052    -6.273738   113.886319
	   51 B(5,4,23)       =    120.043679    -0.000394    -0.972067   119.071612
	   52 B(5,6,21)       =    120.031012     0.000663     1.868717   121.899729
	   53 B(5,22,28)      =    109.471229     0.006463    12.376197   121.847427
	   54 B(6,1,20)       =    120.098304    -0.000345    -0.932673   119.165631
	   55 B(6,5,22)       =    120.189753     0.003728     7.512147   127.701900
	   56 B(7,8,9)        =    104.676012     0.000091     0.225844   104.901856
	   57 B(7,8,18)       =    110.963967    -0.000207    -0.877626   110.086342
	   58 B(7,8,19)       =    110.530980     0.000087     0.432160   110.963139
	   59 B(7,11,10)      =    108.227565     0.000235     0.692956   108.920521
	   60 B(7,11,12)      =     59.560711    -0.000238    -0.494938    59.065773
	   61 B(7,11,13)      =    119.266540    -0.000042     0.124264   119.390803
	   62 B(7,12,11)      =     60.717866    -0.000039    -0.197593    60.520273
	   63 B(7,12,25)      =    117.416011     0.000087     1.181718   118.597729
	   64 B(7,12,26)      =    117.863016     0.000075     1.317923   119.180938
	   65 B(7,12,27)      =    118.674982    -0.000010    -0.198267   118.476715
	   66 B(8,7,11)       =    106.277040    -0.000303    -0.817409   105.459631
	   67 B(8,7,12)       =    115.584897    -0.000030    -0.028877   115.556019
	   68 B(8,9,10)       =    104.692002     0.000075    -0.005915   104.686087
	   69 B(8,9,16)       =    108.690991    -0.000015     0.097856   108.788848
	   70 B(8,9,17)       =    113.419998    -0.000004     0.026868   113.446866
	   71 B(9,8,18)       =    112.414302     0.000058     0.349834   112.764136
	   72 B(9,8,19)       =    110.858171    -0.000008     0.033523   110.891694
	   73 B(9,10,11)      =    104.235991    -0.000165    -0.543856   103.692135
	   74 B(9,10,14)      =    112.123993     0.000222     0.723914   112.847907
	   75 B(9,10,15)      =    110.744982     0.000040     0.336498   111.081480
	   76 B(10,9,16)      =    108.731301     0.000025     0.220788   108.952089
	   77 B(10,9,17)      =    113.498999    -0.000089    -0.329819   113.169180
	   78 B(10,11,12)     =    117.414996     0.000209     0.625634   118.040629
	   79 B(10,11,13)     =    119.982231     0.000069     0.662025   120.644256
	   80 B(11,7,12)      =     59.721423     0.000277     0.692530    60.413954
	   81 B(11,10,14)     =    111.713789    -0.000119    -0.605927   111.107861
	   82 B(11,10,15)     =    110.837637     0.000101     0.336509   111.174145
	   83 B(11,12,25)     =    117.068036    -0.000186    -1.142124   115.925912
	   84 B(11,12,26)     =    117.630561    -0.000745    -3.622083   114.008478
	   85 B(11,12,27)     =    166.621351    -0.000170    -1.005596   165.615755
	   86 B(12,11,13)     =    117.384004    -0.000321    -1.881270   115.502734
	   87 B(14,10,15)     =    107.243861    -0.000073    -0.228508   107.015353
	   88 B(16,9,17)      =    107.655246     0.000012     0.014612   107.669858
	   89 B(18,8,19)      =    107.438672    -0.000019    -0.153953   107.284720
	   90 B(22,28,29)     =    109.471163    -0.001010    -2.989895   106.481268
	   91 B(22,28,30)     =    109.471237     0.000723     3.141545   112.612782
	   92 B(22,28,31)     =    109.471162     0.000724     3.066714   112.537876
	   93 B(25,12,26)     =    115.305919     0.000474     1.025087   116.331006
	   94 B(25,12,27)     =     75.649663     0.000344     2.043094    77.692757
	   95 B(26,12,27)     =     49.667332     0.000623     3.049223    52.716556
	   96 B(29,28,30)     =    109.471265    -0.000189     0.158140   109.629405
	   97 B(29,28,31)     =    109.471233    -0.000191     0.285152   109.756385
	   98 B(30,28,31)     =    109.471264    -0.000058    -3.640198   105.831065
	   99 D(1,2,3,4)      =      0.127023    -0.000001    -0.039794     0.087229
	  100 D(1,2,3,24)     =    179.412021     0.000003     0.129615   179.541635
	  101 D(1,2,7,8)      =    109.075866    -0.000008    -0.581247   108.494619
	  102 D(1,2,7,11)     =   -115.144974    -0.000018    -0.214183  -115.359158
	  103 D(1,2,7,12)     =    -44.075804     0.000009     0.024696   -44.051108
	  104 D(1,6,5,4)      =     -0.072568    -0.000000    -0.001395    -0.073963
	  105 D(1,6,5,22)     =   -179.900465     0.000000    -0.050387  -179.950852
	  106 D(2,1,6,5)      =      0.279712    -0.000001    -0.047070     0.232643
	  107 D(2,1,6,21)     =   -179.854616    -0.000002    -0.076055  -179.930671
	  108 D(2,3,4,5)      =      0.074953     0.000000    -0.007255     0.067698
	  109 D(2,3,4,23)     =    179.660022     0.000002     0.070513   179.730535
	  110 D(2,7,8,9)      =    120.375986    -0.000001     0.254772   120.630758
	  111 D(2,7,8,18)     =     -1.120483    -0.000004     0.173940    -0.946543
	  112 D(2,7,8,19)     =   -120.210485     0.000019     0.651184  -119.559301
	  113 D(2,7,11,10)    =   -139.317107    -0.000065    -1.161154  -140.478260
	  114 D(2,7,11,12)    =    109.044880    -0.000087    -1.481403   107.563478
	  115 D(2,7,11,13)    =      2.650975     0.000022     1.112090     3.763066
	  116 D(2,7,12,11)    =   -111.430950    -0.000043    -0.934566  -112.365516
	  117 D(2,7,12,25)    =     -4.162498    -0.000106    -2.905451    -7.067949
	  118 D(2,7,12,26)    =    140.811515     0.000174     4.135473   144.946988
	  119 D(2,7,12,27)    =     83.857495     0.000002     0.193452    84.050946
	  120 D(3,2,1,6)      =     -0.304050     0.000002     0.066728    -0.237322
	  121 D(3,2,1,20)     =    179.505653    -0.000005    -0.164572   179.341081
	  122 D(3,2,7,8)      =    -68.830973    -0.000005    -0.445050   -69.276022
	  123 D(3,2,7,11)     =     66.948187    -0.000015    -0.077987    66.870201
	  124 D(3,2,7,12)     =    138.017357     0.000012     0.160893   138.178250
	  125 D(3,4,5,6)      =     -0.102948     0.000001     0.028751    -0.074197
	  126 D(3,4,5,22)     =    179.725001     0.000003     0.094273   179.819274
	  127 D(4,3,2,7)      =    178.093004    -0.000004    -0.161473   177.931531
	  128 D(4,5,6,21)     =   -179.938005     0.000001     0.033839  -179.904166
	  129 D(4,5,22,28)    =    180.000000    -0.000002    -0.113713   179.886287
	  130 D(5,4,3,24)     =   -179.203428    -0.000005    -0.184012  -179.387440
	  131 D(5,6,1,20)     =   -179.528176     0.000005     0.180267  -179.347909
	  132 D(5,22,28,29)   =    180.000000     0.000001     0.110431   180.110431
	  133 D(5,22,28,30)   =    -59.999976    -0.000093     0.291510   -59.708465
	  134 D(5,22,28,31)   =     60.000051     0.000094    -0.183206    59.816845
	  135 D(6,1,2,7)      =   -178.236668     0.000007     0.211010  -178.025659
	  136 D(6,5,4,23)     =   -179.687441    -0.000002    -0.052063  -179.739504
	  137 D(6,5,22,28)    =     -0.172991    -0.000001    -0.059147    -0.232138
	  138 D(7,2,1,20)     =      1.573035    -0.000000    -0.020290     1.552745
	  139 D(7,2,3,24)     =     -2.621999     0.000001     0.007936    -2.614063
	  140 D(7,8,9,10)     =     33.771009     0.000034     0.748117    34.519126
	  141 D(7,8,9,16)     =    -82.280006     0.000021     0.451964   -81.828042
	  142 D(7,8,9,17)     =    158.020011     0.000020     0.348522   158.368533
	  143 D(7,11,10,9)    =     19.632339     0.000018     0.428283    20.060623
	  144 D(7,11,10,14)   =    140.914464     0.000041     0.641764   141.556228
	  145 D(7,11,10,15)   =    -99.548724     0.000018     0.177299   -99.371425
	  146 D(7,11,12,25)   =   -107.834882    -0.000039    -1.832578  -109.667460
	  147 D(7,11,12,26)   =    108.135088     0.000089     3.047258   111.182346
	  148 D(7,11,12,27)   =     91.136609    -0.000029    -1.106649    90.029960
	  149 D(7,12,11,10)   =    -95.964286    -0.000016    -0.299497   -96.263783
	  150 D(7,12,11,13)   =    109.524001     0.000002     0.842657   110.366657
	  151 D(8,7,11,10)    =      1.121989    -0.000012    -0.121150     1.000838
	  152 D(8,7,11,12)    =   -110.516024    -0.000034    -0.441399  -110.957424
	  153 D(8,7,11,13)    =    143.090070     0.000075     2.152094   145.242164
	  154 D(8,7,12,11)    =     94.605518    -0.000055    -0.690361    93.915157
	  155 D(8,7,12,25)    =   -158.126030    -0.000118    -2.661245  -160.787276
	  156 D(8,7,12,26)    =    -13.152017     0.000162     4.379678    -8.772338
	  157 D(8,7,12,27)    =    -70.106038    -0.000010     0.437657   -69.668380
	  158 D(8,9,10,11)    =    -32.865004    -0.000017    -0.503765   -33.368769
	  159 D(8,9,10,14)    =   -153.873999     0.000012     0.182613  -153.691387
	  160 D(8,9,10,15)    =     86.378974    -0.000007    -0.252311    86.126662
	  161 D(9,8,7,11)     =    -21.493819    -0.000000    -0.266437   -21.760256
	  162 D(9,8,7,12)     =    -85.226516    -0.000043    -0.712146   -85.938663
	  163 D(9,10,11,12)   =     84.160990    -0.000016     0.234024    84.395014
	  164 D(9,10,11,13)   =   -122.015576    -0.000058    -1.638529  -123.654105
	  165 D(10,9,8,18)    =    154.308062    -0.000002     0.017915   154.325978
	  166 D(10,9,8,19)    =    -85.422298    -0.000000     0.083842   -85.338456
	  167 D(10,11,7,12)   =    111.638013     0.000022     0.320249   111.958262
	  168 D(10,11,12,25)  =    156.200832    -0.000055    -2.132075   154.068757
	  169 D(10,11,12,26)  =     12.170802     0.000072     2.747760    14.918562
	  170 D(10,11,12,27)  =     -4.827677    -0.000045    -1.406146    -6.233823
	  171 D(11,7,8,18)    =   -142.990288    -0.000003    -0.347269  -143.337558
	  172 D(11,7,8,19)    =     97.919710     0.000020     0.129975    98.049685
	  173 D(11,7,12,25)   =    107.268451    -0.000063    -1.970884   105.297567
	  174 D(11,7,12,26)   =   -107.757535     0.000217     5.070039  -102.687496
	  175 D(11,7,12,27)   =   -164.711556     0.000045     1.128018  -163.583538
	  176 D(11,10,9,16)   =     83.158064    -0.000010    -0.292606    82.865457
	  177 D(11,10,9,17)   =   -157.063604    -0.000016    -0.332353  -157.395957
	  178 D(12,7,8,18)    =    153.277015    -0.000046    -0.792978   152.484036
	  179 D(12,7,8,19)    =     34.187013    -0.000023    -0.315734    33.871279
	  180 D(12,7,11,13)   =   -106.393905     0.000109     2.593493  -103.800412
	  181 D(12,11,10,14)  =   -154.556885     0.000008     0.447505  -154.109380
	  182 D(12,11,10,15)  =    -35.020073    -0.000016    -0.016960   -35.037033
	  183 D(13,11,10,14)  =     -0.733451    -0.000035    -1.425048    -2.158499
	  184 D(13,11,10,15)  =    118.803361    -0.000059    -1.889513   116.913848
	  185 D(13,11,12,25)  =      1.689118    -0.000037    -0.989921     0.699197
	  186 D(13,11,12,26)  =   -142.340911     0.000091     3.889914  -138.450997
	  187 D(13,11,12,27)  =   -159.339390    -0.000026    -0.263992  -159.603382
	  188 D(14,10,9,16)   =    -37.850931     0.000019     0.393771   -37.457160
	  189 D(14,10,9,17)   =     81.927401     0.000014     0.354024    82.281425
	  190 D(15,10,9,16)   =   -157.597958     0.000000    -0.041153  -157.639111
	  191 D(15,10,9,17)   =    -37.819626    -0.000005    -0.080900   -37.900526
	  192 D(16,9,8,18)    =     38.257048    -0.000016    -0.278238    37.978810
	  193 D(16,9,8,19)    =    158.526687    -0.000014    -0.212311   158.314376
	  194 D(17,9,8,18)    =    -81.442936    -0.000017    -0.381680   -81.824616
	  195 D(17,9,8,19)    =     38.826704    -0.000015    -0.315754    38.510950
	  196 D(20,1,6,21)    =      0.337495     0.000004     0.151281     0.488776
	  197 D(21,6,5,22)    =      0.234098     0.000002    -0.015153     0.218945
	  198 D(22,5,4,23)    =      0.140507     0.000000     0.013459     0.153966
	  199 D(23,4,3,24)    =      0.381641    -0.000003    -0.106244     0.275397
	 ---------------------------------------------------------------------------
	Successfully symmetrized geometry.

  ==> Convergence Check <==

  Measures of convergence in internal coordinates in au.
  Criteria marked as inactive (o), active & met (*), and active & unmet ( ).
  --------------------------------------------------------------------------------------------- ~
   Step     Total Energy     Delta E     MAX Force     RMS Force      MAX Disp      RMS Disp    ~
  --------------------------------------------------------------------------------------------- ~
    Convergence Criteria    1.00e-06 *    3.00e-04 *             o    1.20e-03 *             o  ~
  --------------------------------------------------------------------------------------------- ~
      1    -578.65093646   -5.79e+02      8.49e-02      9.47e-03 o    2.16e-01      3.49e-02 o  ~
  ---------------------------------------------------------------------------------------------

	Writing optimization data to binary file.
	Structure for next step:
	Cartesian Geometry (in Angstrom)
	    C    -0.3853378982  -0.0212880227  -1.4125145268
	    C    -0.3349763220  -0.0186813937  -0.0076883508
	    C     0.9258792697  -0.0120751916   0.6226445413
	    C     2.1004467003  -0.0063730674  -0.1340378988
	    C     2.0590969087  -0.0056305021  -1.5432416017
	    C     0.7905906465  -0.0124498344  -2.1821072315
	    C    -1.5713838491  -0.0715762765   0.8260086089
	    C    -1.9188239179  -1.3559914512   1.6090417243
	    C    -1.9744668349  -0.9165906148   3.0878166498
	    C    -2.5374318060   0.5181855285   3.0483376794
	    C    -1.9823746147   1.0893002376   1.7413949805
	    C    -2.7477389078   0.7986647313   0.4455233719
	    H    -1.3882576809   2.0098669503   1.7420220407
	    H    -2.2227469748   1.1245289569   3.9110059575
	    H    -3.6413585923   0.5116063901   3.0435806829
	    H    -0.9461826319  -0.8874410689   3.4890966487
	    H    -2.5627695683  -1.5955076920   3.7248460201
	    H    -1.1590813051  -2.1287364792   1.4231284886
	    H    -2.8933131025  -1.7675138757   1.2825459735
	    H    -1.3566018552  -0.0373702654  -1.9210000703
	    H     0.6926524653  -0.0138020153  -3.2649064308
	    O     3.3095845785   0.0043021500  -2.1415020834
	    H     3.0718875897   0.0031873861   0.3693458830
	    H     0.9867076718  -0.0023302303   1.7176983042
	    H    -2.6187168837   1.5382743511  -0.3696995888
	    H    -3.8165071952   0.4021995242   0.6112912200
	    H    -3.5365078654   0.3828273100  -0.4158323913
	    C     3.4726395871   0.0041364380  -3.6229568038
	    H     4.6227460427   0.0114692140  -3.8299084314
	    H     3.0062216133  -0.8983123496  -4.1099723642
	    H     2.9919488392   0.8997280607  -4.1107010720
			--------------------------
			 OPTKING Finished Execution 
			--------------------------

    Structure for next step:
    Molecular point group: c1
    Full point group: C1

    Geometry (in Angstrom), charge = 1, multiplicity = 1:

    C           -0.347457701705    -0.018610223381    -1.406189797012
    C           -0.297096125382    -0.016003594393    -0.001363615499
    C            0.963759471306    -0.009397392236     0.628969279076
    C            2.138326906488    -0.003695268039    -0.127713164020
    C            2.096977114775    -0.002952702783    -1.536916872429
    C            0.828470847623    -0.009772035064    -2.175782504785
    C           -1.533503657331    -0.068898477443     0.832333347496
    C           -1.880943727513    -1.353313657198     1.615366465985
    C           -1.936586644656    -0.913912819066     3.094141397304
    C           -2.499551618032     0.520863329890     3.054662426693
    C           -1.944494424568     1.091978041298     1.747719722659
    C           -2.709858720581     0.801342533847     0.451848108936
    H           -1.350377488396     2.012544757583     1.748346782873
    H           -2.184866785613     1.127206760699     3.917330708208
    H           -3.603478408605     0.514284191499     3.049905430176
    H           -0.908302437625    -0.884763272971     3.495421397751
    H           -2.524889380451    -1.592829898883     3.731170770070
    H           -1.121201111727    -2.126058688197     1.429453229559
    H           -2.855432915929    -1.764836083291     1.288870713837
    H           -1.318721662602    -0.034692466192    -1.914675342562
    H            0.730532665978    -0.011124215943    -3.258581708330
    O            3.347464789497     0.006979949426    -2.135177356436
    H            3.109767799729     0.005865185519     0.375670619816
    H            1.024587873642     0.000347569093     1.724023046302
    H           -2.580836696002     1.540952156483    -0.363374854938
    H           -3.778627012256     0.404877325182     0.617615957710
    H           -3.498627681349     0.385505110867    -0.409507657639
    C            3.510519798761     0.006814237356    -3.616632082724
    H            4.660626258836     0.014147013435    -3.823583711130
    H            3.044101823080    -0.895634553764    -4.103647645069
    H            3.029829048974     0.902405863652    -4.104376352872


Scratch directory: /tmp/
gradient() will perform analytic gradient computation.

*** tstart() called on skystd39.palmetto.clemson.edu
*** at Thu Oct 14 16:37:31 2021

   => Loading Basis Set <=

    Name: CC-PVDZ
    Role: ORBITAL
    Keyword: BASIS
    atoms 1-12, 28            entry C          line   138 file /home/maxbuskirk/.conda/envs/psifour/share/psi4/basis/cc-pvdz.gbs 
    atoms 13-21, 23-27, 29-31 entry H          line    22 file /home/maxbuskirk/.conda/envs/psifour/share/psi4/basis/cc-pvdz.gbs 
    atoms 22                  entry O          line   198 file /home/maxbuskirk/.conda/envs/psifour/share/psi4/basis/cc-pvdz.gbs 


         ---------------------------------------------------------
                                   SCF
               by Justin Turney, Rob Parrish, Andy Simmonett
                          and Daniel G. A. Smith
                              RHF Reference
                        1 Threads,  30517 MiB Core
         ---------------------------------------------------------

  ==> Geometry <==

    Molecular point group: c1
    Full point group: C1

    Geometry (in Angstrom), charge = 1, multiplicity = 1:

       Center              X                  Y                   Z               Mass       
    ------------   -----------------  -----------------  -----------------  -----------------
         C           -0.347457701705    -0.018610223381    -1.406189797012    12.000000000000
         C           -0.297096125382    -0.016003594393    -0.001363615499    12.000000000000
         C            0.963759471306    -0.009397392236     0.628969279076    12.000000000000
         C            2.138326906488    -0.003695268039    -0.127713164020    12.000000000000
         C            2.096977114775    -0.002952702783    -1.536916872429    12.000000000000
         C            0.828470847623    -0.009772035064    -2.175782504785    12.000000000000
         C           -1.533503657331    -0.068898477443     0.832333347496    12.000000000000
         C           -1.880943727513    -1.353313657198     1.615366465985    12.000000000000
         C           -1.936586644656    -0.913912819066     3.094141397304    12.000000000000
         C           -2.499551618032     0.520863329890     3.054662426693    12.000000000000
         C           -1.944494424568     1.091978041298     1.747719722659    12.000000000000
         C           -2.709858720581     0.801342533847     0.451848108936    12.000000000000
         H           -1.350377488396     2.012544757583     1.748346782873     1.007825032230
         H           -2.184866785613     1.127206760699     3.917330708208     1.007825032230
         H           -3.603478408605     0.514284191499     3.049905430176     1.007825032230
         H           -0.908302437625    -0.884763272971     3.495421397751     1.007825032230
         H           -2.524889380451    -1.592829898883     3.731170770070     1.007825032230
         H           -1.121201111727    -2.126058688197     1.429453229559     1.007825032230
         H           -2.855432915929    -1.764836083291     1.288870713837     1.007825032230
         H           -1.318721662602    -0.034692466192    -1.914675342562     1.007825032230
         H            0.730532665978    -0.011124215943    -3.258581708330     1.007825032230
         O            3.347464789497     0.006979949426    -2.135177356436    15.994914619570
         H            3.109767799729     0.005865185519     0.375670619816     1.007825032230
         H            1.024587873642     0.000347569093     1.724023046302     1.007825032230
         H           -2.580836696002     1.540952156483    -0.363374854938     1.007825032230
         H           -3.778627012256     0.404877325182     0.617615957710     1.007825032230
         H           -3.498627681349     0.385505110867    -0.409507657639     1.007825032230
         C            3.510519798761     0.006814237356    -3.616632082724    12.000000000000
         H            4.660626258836     0.014147013435    -3.823583711130     1.007825032230
         H            3.044101823080    -0.895634553764    -4.103647645069     1.007825032230
         H            3.029829048974     0.902405863652    -4.104376352872     1.007825032230

  Running in c1 symmetry.

  Rotational constants: A =      0.06839  B =      0.01065  C =      0.01000 [cm^-1]
  Rotational constants: A =   2050.36856  B =    319.40705  C =    299.94196 [MHz]
  Nuclear repulsion =  867.144391798091533

  Charge       = 1
  Multiplicity = 1
  Electrons    = 102
  Nalpha       = 51
  Nbeta        = 51

  ==> Algorithm <==

  SCF Algorithm Type is DF.
  DIIS enabled.
  MOM disabled.
  Fractional occupation disabled.
  Guess Type is READ.
  Energy threshold   = 1.00e-10
  Density threshold  = 1.00e-10
  Integral threshold = 1.00e-12

  ==> Primary Basis <==

  Basis Set: CC-PVDZ
    Blend: CC-PVDZ
    Number of shells: 135
    Number of basis functions: 281
    Number of Cartesian functions: 295
    Spherical Harmonics?: true
    Max angular momentum: 2

   => Loading Basis Set <=

    Name: (CC-PVDZ AUX)
    Role: JKFIT
    Keyword: DF_BASIS_SCF
    atoms 1-12, 28            entry C          line   121 file /home/maxbuskirk/.conda/envs/psifour/share/psi4/basis/cc-pvdz-jkfit.gbs 
    atoms 13-21, 23-27, 29-31 entry H          line    51 file /home/maxbuskirk/.conda/envs/psifour/share/psi4/basis/cc-pvdz-jkfit.gbs 
    atoms 22                  entry O          line   221 file /home/maxbuskirk/.conda/envs/psifour/share/psi4/basis/cc-pvdz-jkfit.gbs 

   => Loading Basis Set <=

    Name: CC-PVDZ
    Role: ORBITAL
    Keyword: BASIS
    atoms 1-12, 28            entry C          line   138 file /home/maxbuskirk/.conda/envs/psifour/share/psi4/basis/cc-pvdz.gbs 
    atoms 13-21, 23-27, 29-31 entry H          line    22 file /home/maxbuskirk/.conda/envs/psifour/share/psi4/basis/cc-pvdz.gbs 
    atoms 22                  entry O          line   198 file /home/maxbuskirk/.conda/envs/psifour/share/psi4/basis/cc-pvdz.gbs 

  Reading orbitals from file /tmp/2ndcornerOMe.mol.2960227.180.npy, no projection.

  ==> Integral Setup <==

  DFHelper Memory: AOs need 0.700 GiB; user supplied 22.352 GiB. Using in-core AOs.

  ==> MemDFJK: Density-Fitted J/K Matrices <==

    J tasked:                   Yes
    K tasked:                   Yes
    wK tasked:                   No
    OpenMP threads:               1
    Memory [MiB]:             22888
    Algorithm:                 Core
    Schwarz Cutoff:           1E-12
    Mask sparsity (%):      16.5322
    Fitting Condition:        1E-10

   => Auxiliary Basis Set <=

  Basis Set: (CC-PVDZ AUX)
    Blend: CC-PVDZ-JKFIT
    Number of shells: 489
    Number of basis functions: 1371
    Number of Cartesian functions: 1559
    Spherical Harmonics?: true
    Max angular momentum: 3

  Minimum eigenvalue in the overlap matrix is 3.3296137039E-04.
  Reciprocal condition number of the overlap matrix is 4.7480536597E-05.
    Using symmetric orthogonalization.

  ==> Pre-Iterations <==

  SCF Guess: Orbitals guess was supplied from a previous computation.

   -------------------------------------------------------
    Irrep   Nso     Nmo     Nalpha   Nbeta   Ndocc  Nsocc
   -------------------------------------------------------
     A        281     281      51      51      51       0
   -------------------------------------------------------
    Total     281     281      51      51      51       0
   -------------------------------------------------------

  ==> Iterations <==

                           Total Energy        Delta E     RMS |[F,P]|

   @DF-RHF iter   0:  -576.41884143939569   -5.76419e+02   1.72527e-03 
   @DF-RHF iter   1:  -576.65809137955318   -2.39250e-01   4.31911e-04 DIIS
   @DF-RHF iter   2:  -576.66724066135839   -9.14928e-03   2.35234e-04 DIIS
   @DF-RHF iter   3:  -576.66937484592688   -2.13418e-03   6.66265e-05 DIIS
   @DF-RHF iter   4:  -576.66972411664779   -3.49271e-04   2.47991e-05 DIIS
   @DF-RHF iter   5:  -576.66976069957491   -3.65829e-05   5.29823e-06 DIIS
   @DF-RHF iter   6:  -576.66976431062960   -3.61105e-06   2.70001e-06 DIIS
   @DF-RHF iter   7:  -576.66976490541447   -5.94785e-07   1.08144e-06 DIIS
   @DF-RHF iter   8:  -576.66976512805877   -2.22644e-07   4.93493e-07 DIIS
   @DF-RHF iter   9:  -576.66976517899184   -5.09331e-08   2.36658e-07 DIIS
   @DF-RHF iter  10:  -576.66976519088678   -1.18949e-08   8.39867e-08 DIIS
   @DF-RHF iter  11:  -576.66976519206071   -1.17393e-09   3.17424e-08 DIIS
   @DF-RHF iter  12:  -576.66976519217769   -1.16984e-10   1.02319e-08 DIIS
   @DF-RHF iter  13:  -576.66976519219691   -1.92131e-11   3.28515e-09 DIIS
   @DF-RHF iter  14:  -576.66976519219668    2.27374e-13   1.39204e-09 DIIS
   @DF-RHF iter  15:  -576.66976519219600    6.82121e-13   4.91317e-10 DIIS
   @DF-RHF iter  16:  -576.66976519219770   -1.70530e-12   1.82807e-10 DIIS
[...]
	system time =      63.64 seconds =       1.06 minutes
	total time  =       1257 seconds =      20.95 minutes

			-----------------------------------------
			 OPTKING 2.0: for geometry optimizations 
			  - R.A. King,  Bethel University        
			-----------------------------------------

	Previous internal coordinate definitions found.
	---Fragment 1 Geometry and Gradient---
	 C          -0.4702887556        0.1351797573       -2.6643635499
	 C          -0.5106935788       -0.0804621366       -0.0201046444
	 C           1.7978097126       -0.0241753564        1.3265267777
	 C           4.0776807201        0.2580848970        0.0403095127
	 C           4.1178812830        0.4977063047       -2.6216893302
	 C           1.8192504386        0.4339688854       -3.9706428355
	 C          -2.8900240537       -0.4844082925        1.4566201173
	 C          -3.5399695446       -3.0304652268        2.7262640839
	 C          -3.7880314416       -2.3296010065        5.5431366181
	 C          -5.0438728818        0.3049240984        5.4874209025
	 C          -3.8148567046        1.4750140878        3.1719348780
	 C          -5.2215874539        0.8684545348        0.2376010742
	 H          -3.1533590483        3.4382480653        3.1238455136
	 H          -4.6950306706        1.4987041862        7.1563275670
	 H          -7.1116943360        0.1484780821        5.2796745265
	 H          -1.8792086072       -2.1553986233        6.3654247061
	 H          -4.8465946131       -3.7119985492        6.6779514397
	 H          -2.0424294167       -4.4178211797        2.3460017214
	 H          -5.3228305819       -3.8006499843        1.9650670622
	 H          -2.2235074871        0.0415081284       -3.7580834230
	 H           1.7792735507        0.5993546435       -6.0252829782
	 O           6.4313246633        0.7710372768       -3.6539023194
	 H           5.8790818867        0.3060347925        1.0507054119
	 H           1.8108005550       -0.2074888818        3.3891779847
	 H          -4.7746977373        2.8573987313       -0.2868513482
	 H          -6.9860292752        0.9468237951        1.3850511674
	 H          -6.1871966317        0.4543287485       -1.5885145754
	 C           6.5605060804        1.0127303261       -6.3476501680
	 H           8.5741435906        1.2298687706       -6.7812787580
	 H           5.8217720873       -0.6934610797       -7.2881298729
	 H           5.5186120002        2.6960102170       -6.9986393459
	             0.0000582502        0.0015508056       -0.0004711367
	            -0.0007428533        0.0002813279       -0.0000354198
	             0.0005630147       -0.0008891542        0.0002686779
	            -0.0002982062       -0.0000610763       -0.0000042041
	            -0.0003098461        0.0001641449       -0.0001939157
	            -0.0005083069        0.0000546610       -0.0000310373
	             0.0026534469       -0.0023211402        0.0037063769
	            -0.0004297575        0.0013685990        0.0012875554
	            -0.0003627551        0.0004707643        0.0002698805
	             0.0010382977       -0.0007483376        0.0025251104
	            -0.0194485461        0.0140450359       -0.0223197745
	             0.0289331298       -0.0439558504        0.0085369850
	             0.0017923801        0.0009038235        0.0022549421
	            -0.0010257462        0.0000692076        0.0004568065
	            -0.0000190198       -0.0012561612       -0.0009003009
	             0.0005196774        0.0003341665       -0.0005997774
	             0.0005227084       -0.0001883122        0.0005350487
	            -0.0000509009       -0.0002192025       -0.0004203195
	            -0.0002486919       -0.0000638213       -0.0003417121
	            -0.0001302335       -0.0003297289       -0.0000559817
	            -0.0001158697       -0.0000039686       -0.0001079636
	             0.0005716754       -0.0002683324        0.0017397202
	             0.0001581611       -0.0000336208        0.0001634671
	             0.0000056612       -0.0000101633        0.0000633683
	             0.0000517427        0.0025212691        0.0023431518
	             0.0002323245        0.0031477865        0.0022729379
	            -0.0134205438        0.0252491049        0.0007291871
	            -0.0002248299        0.0001351936       -0.0019071639
	             0.0002830407        0.0000181275        0.0003028575
	             0.0000806727       -0.0003042754       -0.0000591308
	            -0.0001280768        0.0003391276       -0.0000082354

	---Fragment 1 Intrafragment Coordinates---
	 - Coordinate -           - BOHR/RAD -       - ANG/DEG -
	 R(1,2)           =         2.653345	       1.404090
	 R(1,6)           =         2.652853	       1.403829
	 R(1,20)          =         2.068520	       1.094613
	 R(2,3)           =         2.673158	       1.414574
	 R(2,7)           =         2.829329	       1.497216
	 R(3,4)           =         2.632838	       1.393238
	 R(3,24)          =         2.070822	       1.095832
	 R(4,5)           =         2.673064	       1.414525
	 R(4,23)          =         2.065973	       1.093266
	 R(5,6)           =         2.665979	       1.410775
	 R(5,22)          =         2.547978	       1.348332
	 R(6,21)          =         2.061673	       1.090991
	 R(7,8)           =         2.918361	       1.544330
	 R(7,11)          =         2.763504	       1.462384
	 R(7,12)          =         2.958451	       1.565545
	 R(8,9)           =         2.913334	       1.541670
	 R(8,18)          =         2.076531	       1.098853
	 R(8,19)          =         2.085953	       1.103839
	 R(9,10)          =         2.919069	       1.544705
	 R(9,16)          =         2.085691	       1.103700
	 R(9,17)          =         2.078313	       1.099796
	 R(10,11)         =         2.870726	       1.519123
	 R(10,14)         =         2.081358	       1.101407
	 R(10,15)         =         2.084111	       1.102864
	 R(11,12)         =         3.310154	       1.751658
	 R(11,13)         =         2.072240	       1.096582
	 R(12,25)         =         2.104913	       1.113872
	 R(12,26)         =         2.106190	       1.114548
	 R(12,27)         =         2.106798	       1.114870
	 R(22,28)         =         2.707652	       1.432828
	 R(28,29)         =         2.071212	       1.096038
	 R(28,30)         =         2.083583	       1.102585
	 R(28,31)         =         2.083929	       1.102768
	 B(1,2,3)         =         2.079647	     119.154982
	 B(1,2,7)         =         2.146657	     122.994363
	 B(1,6,5)         =         2.091706	     119.845905
	 B(1,6,21)        =         2.074903	     118.883205
	 B(2,1,6)         =         2.109490	     120.864881
	 B(2,1,20)        =         2.106385	     120.686983
	 B(2,3,4)         =         2.098982	     120.262813
	 B(2,3,24)        =         2.100557	     120.353031
	 B(2,7,8)         =         2.139944	     122.609783
	 B(2,7,11)        =         2.099216	     120.276212
	 B(2,7,12)        =         1.963197	     112.482924
	 B(3,2,7)         =         2.055913	     117.795118
	 B(3,4,5)         =         2.104981	     120.606550
	 B(3,4,23)        =         2.116020	     121.238992
	 B(4,3,24)        =         2.083642	     119.383921
	 B(4,5,6)         =         2.081491	     119.260657
	 B(4,5,22)        =         2.011642	     115.258615
	 B(5,4,23)        =         2.062181	     118.154261
	 B(5,6,21)        =         2.116550	     121.269409
	 B(5,22,28)       =         2.044206	     117.124401
	 B(6,1,20)        =         2.067168	     118.440004
	 B(6,5,22)        =         2.190051	     125.480680
	 B(7,8,9)         =         1.802598	     103.281248
	 B(7,8,18)        =         1.920478	     110.035265
	 B(7,8,19)        =         1.932334	     110.714561
	 B(7,11,10)       =         1.933631	     110.788907
	 B(7,11,12)       =         1.002812	      57.456869
	 B(7,11,13)       =         2.153764	     123.401605
	 B(7,12,11)       =         0.906642	      51.946750
	 B(7,12,25)       =         1.947048	     111.557640
	 B(7,12,26)       =         2.040653	     116.920817
	 B(7,12,27)       =         2.250387	     128.937660
	 B(8,7,11)        =         1.848357	     105.903077
	 B(8,7,12)        =         1.985255	     113.746745
	 B(8,9,10)        =         1.808321	     103.609188
	 B(8,9,16)        =         1.900079	     108.866536
	 B(8,9,17)        =         1.994676	     114.286501
	 B(9,8,18)        =         1.981435	     113.527858
	 B(9,8,19)        =         1.948603	     111.646740
	 B(9,10,11)       =         1.771207	     101.482684
	 B(9,10,14)       =         2.015553	     115.482694
	 B(9,10,15)       =         1.940148	     111.162296
	 B(10,9,16)       =         1.902740	     109.018946
	 B(10,9,17)       =         1.973178	     113.054768
	 B(10,11,12)      =         2.046969	     117.282676
	 B(10,11,13)      =         2.143058	     122.788200
	 B(11,7,12)       =         1.232139	      70.596382
	 B(11,10,14)      =         1.919006	     109.950964
	 B(11,10,15)      =         1.955160	     112.022414
	 B(11,12,25)      =         1.528280	      87.563984
	 B(11,12,26)      =         1.436650	      82.313967
	 B(11,12,27)      =         3.100628	     177.652876
	 B(12,11,13)      =         1.863656	     106.779606
	 B(14,10,15)      =         1.864266	     106.814599
	 B(16,9,17)       =         1.882235	     107.844131
	 B(18,8,19)       =         1.878508	     107.630557
	 B(22,28,29)      =         1.837991	     105.309102
	 B(22,28,30)      =         1.938044	     111.041719
	 B(22,28,31)      =         1.938024	     111.040610
	 B(25,12,26)      =         1.852966	     106.167125
	 B(25,12,27)      =         1.637929	      93.846396
	 B(26,12,27)      =         1.666511	      95.484070
	 B(29,28,30)      =         1.913508	     109.635911
	 B(29,28,31)      =         1.913449	     109.632536
	 B(30,28,31)      =         1.921090	     110.070337
	 D(1,2,3,4)       =         0.007071	       0.405163
	 D(1,2,3,24)      =        -3.131423	    -179.417345
	 D(1,2,7,8)       =         1.879107	     107.664911
	 D(1,2,7,11)      =        -1.984981	    -113.731012
	 D(1,2,7,12)      =        -0.589808	     -33.793511
	 D(1,6,5,4)       =         0.000014	       0.000816
	 D(1,6,5,22)      =         3.140142	     179.916910
	 D(2,1,6,5)       =         0.009760	       0.559217
	 D(2,1,6,21)      =        -3.139461	    -179.877873
	 D(2,3,4,5)       =         0.002576	       0.147588
	 D(2,3,4,23)      =         3.141297	     179.983085
	 D(2,7,8,9)       =         2.105970	     120.663183
	 D(2,7,8,18)      =        -0.014800	      -0.847950
	 D(2,7,8,19)      =        -2.089185	    -119.701486
	 D(2,7,11,10)     =        -2.528350	    -144.863773
	 D(2,7,11,12)     =         1.837798	     105.298097
	 D(2,7,11,13)     =         0.277580	      15.904163
	 D(2,7,12,11)     =        -2.018310	    -115.640628
	 D(2,7,12,25)     =        -0.823611	     -47.189429
	 D(2,7,12,26)     =        -2.960550	    -169.627048
	 D(2,7,12,27)     =         1.171769	      67.137430
	 D(3,2,1,6)       =        -0.013273	      -0.760497
	 D(3,2,1,20)      =         3.109931	     178.185909
	 D(3,2,7,8)       =        -1.214719	     -69.598278
	 D(3,2,7,11)      =         1.204378	      69.005799
	 D(3,2,7,12)      =         2.599551	     148.943300
	 D(3,4,5,6)       =        -0.006138	      -0.351694
	 D(3,4,5,22)      =         3.136773	     179.723855
	 D(4,3,2,7)       =         3.102791	     177.776801
	 D(4,5,6,21)      =        -3.133763	    -179.551421
	 D(4,5,22,28)     =         3.138405	     179.817376
	 D(5,4,3,24)      =         3.141101	     179.971811
	 D(5,6,1,20)      =        -3.113848	    -178.410375
	 D(5,22,28,29)    =         3.132069	     179.454353
	 D(5,22,28,30)    =        -1.081255	     -61.951364
	 D(5,22,28,31)    =         1.062289	      60.864670
	 D(6,1,2,7)       =        -3.106480	    -177.988197
	 D(6,5,4,23)      =         3.138239	     179.807834
	 D(6,5,22,28)     =        -0.001775	      -0.101686
	 D(7,2,1,20)      =         0.016724	       0.958210
	 D(7,2,3,24)      =        -0.035704	      -2.045707
	 D(7,8,9,10)      =         0.648440	      37.152902
	 D(7,8,9,16)      =        -1.374685	     -78.763623
	 D(7,8,9,17)      =         2.803142	     160.608184
	 D(7,11,10,9)     =         0.403222	      23.102931
	 D(7,11,10,14)    =         2.545401	     145.840717
	 D(7,11,10,15)    =        -1.667708	     -95.552651
	 D(7,11,12,25)    =        -2.094795	    -120.022938
	 D(7,11,12,26)    =         2.326542	     133.301032
	 D(7,11,12,27)    =         1.972139	     112.995237
	 D(7,12,11,10)    =        -1.715921	     -98.315004
	 D(7,12,11,13)    =         2.082504	     119.318685
	 D(8,7,11,10)     =        -0.004486	      -0.257038
	 D(8,7,11,12)     =        -1.921523	    -110.095168
	 D(8,7,11,13)     =         2.801444	     160.510898
	 D(8,7,12,11)     =         1.733942	      99.347583
	 D(8,7,12,25)     =         2.928641	     167.798782
	 D(8,7,12,26)     =         0.791702	      45.361162
	 D(8,7,12,27)     =        -1.359164	     -77.874359
	 D(8,9,10,11)     =        -0.637983	     -36.553708
	 D(8,9,10,14)     =        -2.712314	    -155.404126
	 D(8,9,10,15)     =         1.443683	      82.716934
	 D(9,8,7,11)      =        -0.399859	     -22.910213
	 D(9,8,7,12)      =        -1.715859	     -98.311493
	 D(9,10,11,12)    =         1.505445	      86.255631
	 D(9,10,11,13)    =        -2.405132	    -137.803937
	 D(10,9,8,18)     =         2.727548	     156.276983
	 D(10,9,8,19)     =        -1.428362	     -81.839120
	 D(10,11,7,12)    =         1.917037	     109.838131
	 D(10,11,12,25)   =         2.472469	     141.662058
	 D(10,11,12,26)   =         0.610621	      34.986028
	 D(10,11,12,27)   =         0.256218	      14.680233
	 D(11,7,8,18)     =        -2.520628	    -144.421346
	 D(11,7,8,19)     =         1.688172	      96.725119
	 D(11,7,12,25)    =         1.194699	      68.451199
	 D(11,7,12,26)    =        -0.942241	     -53.986420
	 D(11,7,12,27)    =        -3.093106	    -177.221942
	 D(11,10,9,16)    =         1.383259	      79.254913
	 D(11,10,9,17)    =        -2.806730	    -160.813806
	 D(12,7,8,18)     =         2.446557	     140.177375
	 D(12,7,8,19)     =         0.372171	      21.323839
	 D(12,7,11,13)    =        -1.560218	     -89.393934
	 D(12,11,10,14)   =        -2.635562	    -151.006583
	 D(12,11,10,15)   =        -0.565486	     -32.399952
	 D(13,11,10,14)   =        -0.262954	     -15.066151
	 D(13,11,10,15)   =         1.807122	     103.540480
	 D(13,11,12,25)   =        -0.012292	      -0.704253
	 D(13,11,12,26)   =        -1.874139	    -107.380283
	 D(13,11,12,27)   =        -2.228542	    -127.686077
	 D(14,10,9,16)    =        -0.691072	     -39.595506
	 D(14,10,9,17)    =         1.402124	      80.335775
	 D(15,10,9,16)    =        -2.818261	    -161.474446
	 D(15,10,9,17)    =        -0.725065	     -41.543165
	 D(16,9,8,18)     =         0.704423	      40.360458
	 D(16,9,8,19)     =         2.831698	     162.244355
	 D(17,9,8,18)     =        -1.400936	     -80.267735
	 D(17,9,8,19)     =         0.726339	      41.616162
	 D(20,1,6,21)     =         0.020116	       1.152534
	 D(21,6,5,22)     =         0.006365	       0.364673
	 D(22,5,4,23)     =        -0.002035	      -0.116618
	 D(23,4,3,24)     =        -0.003363	      -0.192692

	Current energy   :      -578.7186336157

	Energy change for the previous step:
		Projected    :        -0.0039914421
		Actual       :        -0.0046274276

	Performing Bofill update.
	Previous computed or guess Hessian on step 1.
	Steps to be used in Hessian update: 12 11
	Taking PRFO optimization step.
	Maximizing along 1 lowest eigenvalue of Hessian.

 RFO min eigenvalues
 -0.004195 -0.000000 -0.000000 -0.000000 -0.000000 -0.000000 -0.000000 -0.000000
 -0.000000 -0.000000 -0.000000 -0.000000 -0.000000 -0.000000 -0.000000 -0.000000
 -0.000000 -0.000000 -0.000000 -0.000000 -0.000000 -0.000000 -0.000000 -0.000000
 -0.000000 -0.000000 -0.000000 -0.000000 -0.000000 -0.000000 -0.000000 -0.000000
 -0.000000 -0.000000 -0.000000 -0.000000 -0.000000 -0.000000 -0.000000 -0.000000
 -0.000000 -0.000000 -0.000000 -0.000000 -0.000000 -0.000000 -0.000000 -0.000000
 -0.000000 -0.000000 -0.000000 -0.000000 -0.000000 -0.000000 -0.000000 -0.000000
 -0.000000 -0.000000 -0.000000 -0.000000 -0.000000  0.000000  0.000000  0.000000
  0.000000  0.000000  0.000000  0.000000  0.000000  0.000000  0.000000  0.000000
  0.000000  0.000000  0.000000  0.000000  0.000000  0.000000  0.000000  0.000000
  0.000000  0.000000  0.000000  0.000000  0.000000  0.000000  0.000000  0.000000
  0.000000  0.000000  0.000000  0.000000  0.000000  0.000000  0.000000  0.000000
  0.000000  0.000000  0.000000  0.000000  0.000000  0.000000  0.000000  0.000000
  0.000000  0.000000  0.000000  0.000000  0.000000  0.000000  0.000000  0.000000
  0.000000  0.003930  0.005002  0.005865  0.007648  0.008738  0.012450  0.012988
  0.015327  0.015667  0.017010  0.017277  0.017406  0.017505  0.017562  0.017604
  0.017655  0.019190  0.021415  0.027792  0.029369  0.037437  0.043310  0.050636
  0.053920  0.058593  0.061090  0.068317  0.069005  0.069800  0.070248  0.077672
  0.082186  0.088379  0.093513  0.098038  0.100330  0.101590  0.103545  0.110644
  0.158298  0.159918  0.159938  0.159974  0.160291  0.160586  0.163638  0.166269
  0.179256  0.200926  0.203679  0.220018  0.229989  0.240592  0.249705  0.249897
  0.263604  0.266067  0.276284  0.290574  0.301686  0.331090  0.331311  0.331476
  0.331785  0.333220  0.333371  0.335071  0.335236  0.340797  0.341743  0.342654
  0.343004  0.343088  0.343641  0.344142  0.349285  0.349298  0.390523  0.408325
  0.424381  0.439431  0.443323  0.445392  0.450408  0.456233  0.564905

 RFO max eigenvalues
 -0.011103  0.000021
	Change in coordinate exceeds step limit of    0.50000.
	Scaling displacements by    0.87824
	|RFO target step|  :        0.5000000000
	RFO gradient       :       -0.0073321711
	RFO hessian        :        0.0087081359
	Projected Delta(E) :       -0.0020620548

	Back-transformation to cartesian coordinates...
	The INTCO_EXCEPTion handler:
	TORS::compute_val: unable to compute torsion value
	Dynamic level is 0.
	exc.g_really_quit() is 0.

  **** Optimization has failed! (in 13 steps) ****
			--------------------------
			 OPTKING Finished Execution 
			--------------------------
	Removing binary optimization data file.
	Cleaning optimization helper files.

PsiException: Could not converge geometry optimization in 12 iterations.


Traceback (most recent call last):
  File "/home/maxbuskirk/.conda/envs/psifour/bin/psi4", line 333, in <module>
    exec(content)
  File "<string>", line 62, in <module>
  File "/home/maxbuskirk/.conda/envs/psifour/lib//python3.9/site-packages/psi4/driver/driver.py", line 1433, in optimize
    raise OptimizationConvergenceError("""geometry optimization""", n - 1, wfn)

psi4.driver.p4util.exceptions.OptimizationConvergenceError: Could not converge geometry optimization in 12 iterations.


Printing out the relevant lines from the Psithon --> Python processed input file:
    core.set_global_option("BASIS", "cc-pVDZ")
    core.set_global_option("REFERENCE", "rhf")
    core.set_global_option("GEOM_MAXITER", 400)
    mol.update_geometry()
    mol.symmetrize(1e-3)
--> e, wfn = optimize('mp2', return_wfn=True)
    oeprop(wfn, "MULLIKEN_CHARGES")
    mol.print_out()
    print_variables()

!-------------------------------------------------------------!
!                                                             !
!  Could not converge geometry optimization in 12 iterations. !
!                                                             !
!-------------------------------------------------------------!

    Psi4 stopped on: Thursday, 14 October 2021 04:56PM
    Psi4 wall time for execution: 0:20:57.26

*** Psi4 encountered an error. Buy a developer more coffee!
*** Resources and help at github.com/psi4/psi4.
