
    -----------------------------------------------------------------------
          Psi4: An Open-Source Ab Initio Electronic Structure Package
                               Psi4 1.4 release

                         Git: Rev {HEAD} 9485035 


    D. G. A. Smith, L. A. Burns, A. C. Simmonett, R. M. Parrish,
    M. C. Schieber, R. Galvelis, P. Kraus, H. Kruse, R. Di Remigio,
    A. Alenaizan, A. M. James, S. Lehtola, J. P. Misiewicz, M. Scheurer,
    R. A. Shaw, J. B. Schriber, Y. Xie, Z. L. Glick, D. A. Sirianni,
    J. S. O'Brien, J. M. Waldrop, A. Kumar, E. G. Hohenstein,
    B. P. Pritchard, B. R. Brooks, H. F. Schaefer III, A. Yu. Sokolov,
    K. Patkowski, A. E. DePrince III, U. Bozkaya, R. A. King,
    F. A. Evangelista, J. M. Turney, T. D. Crawford, C. D. Sherrill,
    J. Chem. Phys. 152(18) 184108 (2020). https://doi.org/10.1063/5.0006002

                            Additional Code Authors
    E. T. Seidl, C. L. Janssen, E. F. Valeev, M. L. Leininger,
    J. F. Gonthier, R. M. Richard, H. R. McAlexander, M. Saitow, X. Wang,
    P. Verma, and M. H. Lechner

             Previous Authors, Complete List of Code Contributors,
                       and Citations for Specific Modules
    https://github.com/psi4/psi4/blob/master/codemeta.json
    https://github.com/psi4/psi4/graphs/contributors
    http://psicode.org/psi4manual/master/introduction.html#citing-psifour

    -----------------------------------------------------------------------


    Psi4 started on: Saturday, 16 October 2021 03:49AM

    Process ID: 3200193
    Host:       skystd12.palmetto.clemson.edu
    PSIDATADIR: /home/maxbuskirk/.conda/envs/psifour/share/psi4
    Memory:     500.0 MiB
    Threads:    1
    
  ==> Input File <==

--------------------------------------------------------------------------
memory 32 GB

molecule mol {
1 1
C    0.00000000  0.00000000  0.00000000
C   -0.35513000 -0.11122100  1.46741200
C    0.47297000  0.77068400  2.42094700
C    1.73642500 -0.05941100  2.72233600
C    2.01582300 -0.83421400  1.41804900
C    0.62842600 -1.09956700  0.83390200
H    0.30430700 -2.12628200  0.63941600
H    2.56665900 -1.77040500  1.60151100
H    2.62455300 -0.22655700  0.72463200
H    1.50135800 -0.78417200  3.52203800
H    2.59041400  0.55001100  3.06352500
H   -0.09849900  1.01131200  3.33128000
H    0.73721700  1.72655000  1.93347100
C   -1.72870600 -0.52444200  1.88186000
C   -1.89792200 -1.43278800  2.94795700
C   -3.18018900 -1.80355500  3.37928200
C   -4.31680300 -1.27052000  2.74732500
C   -4.16078300 -0.36515700  1.68563100
C   -2.87496600  0.00617100  1.25940500
H   -2.75356200  0.71807700  0.43660100
H   -5.04154900  0.05450200  1.18975100
H   -5.31770600 -1.56188400  3.07930300
H   -3.29431100 -2.51371600  4.20414200
H   -1.01183000 -1.85819900  3.43188200
H   -0.76087000 -0.29938900 -0.72635300
H    0.64131600  0.83205500 -0.30981000
H   -0.21220963  0.89249413 -0.59244093
}

set scf_type df
set basis cc-pVDZ
set reference rhf

mol.update_geometry()
mol.symmetrize(1e-3)

e, wfn = energy('mp2', return_wfn=True)
oeprop(wfn, "MULLIKEN_CHARGES")
mol.print_out()
print_variables()
--------------------------------------------------------------------------

  Memory set to  29.802 GiB by Python driver.

Scratch directory: /tmp/

*** tstart() called on skystd12.palmetto.clemson.edu
*** at Sat Oct 16 03:49:19 2021

   => Loading Basis Set <=

    Name: CC-PVDZ
    Role: ORBITAL
    Keyword: BASIS
    atoms 1-6, 14-19  entry C          line   138 file /home/maxbuskirk/.conda/envs/psifour/share/psi4/basis/cc-pvdz.gbs 
    atoms 7-13, 20-27 entry H          line    22 file /home/maxbuskirk/.conda/envs/psifour/share/psi4/basis/cc-pvdz.gbs 


         ---------------------------------------------------------
                                   SCF
               by Justin Turney, Rob Parrish, Andy Simmonett
                          and Daniel G. A. Smith
                              RHF Reference
                        1 Threads,  30517 MiB Core
         ---------------------------------------------------------

  ==> Geometry <==

    Molecular point group: c1
    Full point group: C1

    Geometry (in Angstrom), charge = 1, multiplicity = 1:

       Center              X                  Y                   Z               Mass       
    ------------   -----------------  -----------------  -----------------  -----------------
         C            1.077907759776     0.541020428307    -1.878474830315    12.000000000000
         C            0.722777759776     0.429799428307    -0.411062830315    12.000000000000
         C            1.550877759776     1.311704428307     0.542472169685    12.000000000000
         C            2.814332759776     0.481609428307     0.843861169685    12.000000000000
         C            3.093730759776    -0.293193571693    -0.460425830315    12.000000000000
         C            1.706333759776    -0.558546571693    -1.044572830315    12.000000000000
         H            1.382214759776    -1.585261571693    -1.239058830315     1.007825032230
         H            3.644566759776    -1.229384571693    -0.276963830315     1.007825032230
         H            3.702460759776     0.314463428307    -1.153842830315     1.007825032230
         H            2.579265759776    -0.243151571693     1.643563169685     1.007825032230
         H            3.668321759776     1.091031428307     1.185050169685     1.007825032230
         H            0.979408759776     1.552332428307     1.452805169685     1.007825032230
         H            1.815124759776     2.267570428307     0.054996169685     1.007825032230
         C           -0.650798240224     0.016578428307     0.003385169685    12.000000000000
         C           -0.820014240224    -0.891767571693     1.069482169685    12.000000000000
         C           -2.102281240224    -1.262534571693     1.500807169685    12.000000000000
         C           -3.238895240224    -0.729499571693     0.868850169685    12.000000000000
         C           -3.082875240224     0.175863428307    -0.192843830315    12.000000000000
         C           -1.797058240224     0.547191428307    -0.619069830315    12.000000000000
         H           -1.675654240224     1.259097428307    -1.441873830315     1.007825032230
         H           -3.963641240224     0.595522428307    -0.688723830315     1.007825032230
         H           -4.239798240224    -1.020863571693     1.200828169685     1.007825032230
         H           -2.216403240224    -1.972695571693     2.325667169685     1.007825032230
         H            0.066077759776    -1.317178571693     1.553407169685     1.007825032230
         H            0.317037759776     0.241631428307    -2.604827830315     1.007825032230
         H            1.719223759776     1.373075428307    -2.188284830315     1.007825032230
         H            0.865698129776     1.433514558307    -2.470915760315     1.007825032230

  Running in c1 symmetry.

  Rotational constants: A =      0.07210  B =      0.02011  C =      0.01806 [cm^-1]
  Rotational constants: A =   2161.38313  B =    602.96396  C =    541.50208 [MHz]
  Nuclear repulsion =  681.180746457651821

  Charge       = 1
  Multiplicity = 1
  Electrons    = 86
  Nalpha       = 43
  Nbeta        = 43

  ==> Algorithm <==

  SCF Algorithm Type is DF.
  DIIS enabled.
  MOM disabled.
  Fractional occupation disabled.
  Guess Type is SAD.
  Energy threshold   = 1.00e-08
  Density threshold  = 1.00e-08
  Integral threshold = 1.00e-12

  ==> Primary Basis <==

  Basis Set: CC-PVDZ
    Blend: CC-PVDZ
    Number of shells: 117
    Number of basis functions: 243
    Number of Cartesian functions: 255
    Spherical Harmonics?: true
    Max angular momentum: 2

   => Loading Basis Set <=

    Name: (CC-PVDZ AUX)
    Role: JKFIT
    Keyword: DF_BASIS_SCF
    atoms 1-6, 14-19  entry C          line   121 file /home/maxbuskirk/.conda/envs/psifour/share/psi4/basis/cc-pvdz-jkfit.gbs 
    atoms 7-13, 20-27 entry H          line    51 file /home/maxbuskirk/.conda/envs/psifour/share/psi4/basis/cc-pvdz-jkfit.gbs 

  ==> Integral Setup <==

  DFHelper Memory: AOs need 0.499 GiB; user supplied 22.352 GiB. Using in-core AOs.

  ==> MemDFJK: Density-Fitted J/K Matrices <==

    J tasked:                   Yes
    K tasked:                   Yes
    wK tasked:                   No
    OpenMP threads:               1
    Memory [MiB]:             22888
    Algorithm:                 Core
    Schwarz Cutoff:           1E-12
    Mask sparsity (%):       8.2372
    Fitting Condition:        1E-10

   => Auxiliary Basis Set <=

  Basis Set: (CC-PVDZ AUX)
    Blend: CC-PVDZ-JKFIT
    Number of shells: 423
    Number of basis functions: 1185
    Number of Cartesian functions: 1347
    Spherical Harmonics?: true
    Max angular momentum: 3

  Minimum eigenvalue in the overlap matrix is 3.2615983658E-04.
  Reciprocal condition number of the overlap matrix is 4.5912134584E-05.
    Using symmetric orthogonalization.

  ==> Pre-Iterations <==

  SCF Guess: Superposition of Atomic Densities via on-the-fly atomic UHF (no occupation information).

   -------------------------
    Irrep   Nso     Nmo    
   -------------------------
     A        243     243 
   -------------------------
    Total     243     243
   -------------------------

  ==> Iterations <==

                           Total Energy        Delta E     RMS |[F,P]|

   @DF-RHF iter SAD:  -463.16360093275995   -4.63164e+02   0.00000e+00 
   @DF-RHF iter   1:  -462.53162722879983    6.31974e-01   2.36846e-03 DIIS
   @DF-RHF iter   2:  -462.74564552669017   -2.14018e-01   9.93638e-04 DIIS
   @DF-RHF iter   3:  -462.77765375824157   -3.20082e-02   2.73401e-04 DIIS
   @DF-RHF iter   4:  -462.78113095813171   -3.47720e-03   6.67780e-05 DIIS
   @DF-RHF iter   5:  -462.78130377914982   -1.72821e-04   2.18585e-05 DIIS
   @DF-RHF iter   6:  -462.78132727021500   -2.34911e-05   6.27004e-06 DIIS
   @DF-RHF iter   7:  -462.78132982427815   -2.55406e-06   2.23510e-06 DIIS
   @DF-RHF iter   8:  -462.78133021412754   -3.89849e-07   8.99000e-07 DIIS
   @DF-RHF iter   9:  -462.78133031084741   -9.67199e-08   3.33242e-07 DIIS
   @DF-RHF iter  10:  -462.78133032679750   -1.59501e-08   1.58466e-07 DIIS
   @DF-RHF iter  11:  -462.78133033054883   -3.75132e-09   6.92358e-08 DIIS
   @DF-RHF iter  12:  -462.78133033139272   -8.43897e-10   2.64827e-08 DIIS
   @DF-RHF iter  13:  -462.78133033150158   -1.08855e-10   8.75843e-09 DIIS
  Energy and wave function converged.


  ==> Post-Iterations <==

    Orbital Energies [Eh]
    ---------------------

    Doubly Occupied:                                                      

       1A    -11.492524     2A    -11.464755     3A    -11.440871  
       4A    -11.395545     5A    -11.391034     6A    -11.387257  
       7A    -11.377115     8A    -11.374997     9A    -11.371048  
      10A    -11.364360    11A    -11.363602    12A    -11.360840  
      13A     -1.407915    14A     -1.274755    15A     -1.249717  
      16A     -1.173943    17A     -1.149663    18A     -1.135016  
      19A     -1.109057    20A     -0.972003    21A     -0.968606  
      22A     -0.950862    23A     -0.916207    24A     -0.875962  
      25A     -0.853751    26A     -0.803525    27A     -0.787430  
      28A     -0.759015    29A     -0.754058    30A     -0.742604  
      31A     -0.721188    32A     -0.704932    33A     -0.677412  
      34A     -0.668803    35A     -0.651807    36A     -0.637922  
      37A     -0.630288    38A     -0.619224    39A     -0.614091  
      40A     -0.608152    41A     -0.582786    42A     -0.457009  
      43A     -0.453216  

    Virtual:                                                              

      44A     -0.071222    45A     -0.025766    46A     -0.000194  
      47A      0.005517    48A      0.025588    49A      0.049855  
      50A      0.073448    51A      0.077166    52A      0.091414  
      53A      0.099588    54A      0.114296    55A      0.120140  
      56A      0.122699    57A      0.136864    58A      0.139602  
      59A      0.154063    60A      0.161768    61A      0.176761  
      62A      0.188291    63A      0.215833    64A      0.216780  
      65A      0.229366    66A      0.259767    67A      0.269813  
      68A      0.305625    69A      0.324420    70A      0.333759  
      71A      0.343435    72A      0.351774    73A      0.365725  
      74A      0.412748    75A      0.426279    76A      0.457267  
      77A      0.467044    78A      0.483877    79A      0.498451  
      80A      0.518613    81A      0.524510    82A      0.535976  
      83A      0.543864    84A      0.564822    85A      0.575011  
      86A      0.580988    87A      0.589730    88A      0.599921  
      89A      0.602726    90A      0.610021    91A      0.615663  
      92A      0.621708    93A      0.633467    94A      0.656735  
      95A      0.666365    96A      0.672173    97A      0.682418  
      98A      0.690158    99A      0.694685   100A      0.700328  
     101A      0.705659   102A      0.713340   103A      0.717355  
     104A      0.741099   105A      0.745377   106A      0.753323  
     107A      0.755286   108A      0.759335   109A      0.764774  
     110A      0.774194   111A      0.778302   112A      0.798351  
     113A      0.800240   114A      0.803322   115A      0.829268  
     116A      0.841899   117A      0.856471   118A      0.879758  
     119A      0.885939   120A      0.970355   121A      0.992923  
     122A      0.999906   123A      1.021313   124A      1.024111  
     125A      1.029952   126A      1.038022   127A      1.070289  
     128A      1.090492   129A      1.117061   130A      1.130621  
     131A      1.138881   132A      1.143251   133A      1.148265  
     134A      1.172331   135A      1.185582   136A      1.205032  
     137A      1.231000   138A      1.256884   139A      1.266989  
     140A      1.285576   141A      1.306854   142A      1.326210  
     143A      1.332889   144A      1.376717   145A      1.396598  
     146A      1.418082   147A      1.440669   148A      1.481099  
     149A      1.491020   150A      1.508369   151A      1.526963  
     152A      1.550283   153A      1.581482   154A      1.588517  
     155A      1.607720   156A      1.629255   157A      1.636082  
     158A      1.642697   159A      1.652945   160A      1.661027  
     161A      1.687510   162A      1.698495   163A      1.708768  
     164A      1.729829   165A      1.740118   166A      1.752043  
     167A      1.758928   168A      1.769579   169A      1.782819  
     170A      1.789939   171A      1.794915   172A      1.805116  
     173A      1.813589   174A      1.820977   175A      1.829061  
     176A      1.831801   177A      1.839872   178A      1.845350  
     179A      1.847886   180A      1.870597   181A      1.878985  
     182A      1.896071   183A      1.899385   184A      1.916221  
     185A      1.933132   186A      1.942766   187A      1.949819  
     188A      1.965471   189A      1.986650   190A      1.994849  
     191A      2.022080   192A      2.028279   193A      2.029007  
     194A      2.041469   195A      2.056612   196A      2.066993  
     197A      2.094631   198A      2.100231   199A      2.117824  
     200A      2.127003   201A      2.131941   202A      2.150015  
     203A      2.166245   204A      2.180281   205A      2.189423  
     206A      2.215131   207A      2.234958   208A      2.246026  
     209A      2.261585   210A      2.284614   211A      2.287282  
     212A      2.315515   213A      2.338021   214A      2.342914  
     215A      2.379946   216A      2.416755   217A      2.439401  
     218A      2.453679   219A      2.516541   220A      2.554486  
     221A      2.565146   222A      2.593227   223A      2.615010  
     224A      2.617499   225A      2.626054   226A      2.633118  
     227A      2.642956   228A      2.649114   229A      2.652893  
     230A      2.712112   231A      2.753783   232A      2.777622  
     233A      2.824269   234A      2.842039   235A      2.855095  
     236A      2.882302   237A      2.945459   238A      2.979792  
     239A      3.035742   240A      3.053348   241A      3.111584  
     242A      3.132426   243A      3.780483  

    Final Occupation by Irrep:
              A 
    DOCC [    43 ]

  @DF-RHF Final Energy:  -462.78133033150158

   => Energetics <=

    Nuclear Repulsion Energy =            681.1807464576518214
    One-Electron Energy =               -1962.5344223641748158
    Two-Electron Energy =                 818.5723455750213589
    Total Energy =                       -462.7813303315016356

Computation Completed


Properties will be evaluated at   0.000000,   0.000000,   0.000000 [a0]

Properties computed using the SCF density matrix

  Nuclear Dipole Moment: [e a0]
     X:     8.1034      Y:     2.5871      Z:    -2.4826

  Electronic Dipole Moment: [e a0]
     X:    -6.4019      Y:    -1.6601      Z:     0.2676

  Dipole Moment: [e a0]
     X:     1.7015      Y:     0.9270      Z:    -2.2149     Total:     2.9429

  Dipole Moment: [D]
     X:     4.3248      Y:     2.3562      Z:    -5.6298     Total:     7.4800


*** tstop() called on skystd12.palmetto.clemson.edu at Sat Oct 16 03:49:32 2021
Module time:
	user time   =      12.97 seconds =       0.22 minutes
	system time =       0.52 seconds =       0.01 minutes
	total time  =         13 seconds =       0.22 minutes
Total time:
	user time   =      12.97 seconds =       0.22 minutes
	system time =       0.52 seconds =       0.01 minutes
	total time  =         13 seconds =       0.22 minutes

*** tstart() called on skystd12.palmetto.clemson.edu
*** at Sat Oct 16 03:49:32 2021


  //>>>>>>>>>>>>>>>>>>>>>>>>>>>>>>>>>>>//
  //               DFMP2               //
  //<<<<<<<<<<<<<<<<<<<<<<<<<<<<<<<<<<<//

   => Loading Basis Set <=

    Name: (CC-PVDZ AUX)
    Role: RIFIT
    Keyword: DF_BASIS_MP2
    atoms 1-6, 14-19  entry C          line   159 file /home/maxbuskirk/.conda/envs/psifour/share/psi4/basis/cc-pvdz-ri.gbs 
    atoms 7-13, 20-27 entry H          line    19 file /home/maxbuskirk/.conda/envs/psifour/share/psi4/basis/cc-pvdz-ri.gbs 

	 --------------------------------------------------------
	                          DF-MP2                         
	      2nd-Order Density-Fitted Moller-Plesset Theory     
	              RMP2 Wavefunction,   1 Threads             
	                                                         
	        Rob Parrish, Justin Turney, Andy Simmonett,      
	           Ed Hohenstein, and C. David Sherrill          
	 --------------------------------------------------------

   => Auxiliary Basis Set <=

  Basis Set: (CC-PVDZ AUX)
    Blend: CC-PVDZ-RI
    Number of shells: 306
    Number of basis functions: 882
    Number of Cartesian functions: 1017
    Spherical Harmonics?: true
    Max angular momentum: 3

	 --------------------------------------------------------
	                 NBF =   243, NAUX =   882
	 --------------------------------------------------------
	   CLASS    FOCC     OCC    AOCC    AVIR     VIR    FVIR
	   PAIRS       0      43      43     200     200       0
	 --------------------------------------------------------

	-----------------------------------------------------------
	 ==================> DF-MP2 Energies <==================== 
	-----------------------------------------------------------
	 Reference Energy          =    -462.7813303315015787 [Eh]
	 Singles Energy            =      -0.0000000000000000 [Eh]
	 Same-Spin Energy          =      -0.4305493586455229 [Eh]
	 Opposite-Spin Energy      =      -1.2251667674346716 [Eh]
	 Correlation Energy        =      -1.6557161260801945 [Eh]
	 Total Energy              =    -464.4370464575818005 [Eh]
	-----------------------------------------------------------
	 ================> DF-SCS-MP2 Energies <================== 
	-----------------------------------------------------------
	 SCS Same-Spin Scale       =       0.3333333333333333 [-]
	 SCS Opposite-Spin Scale   =       1.2000000000000000 [-]
	 SCS Same-Spin Energy      =      -0.1435164528818410 [Eh]
	 SCS Opposite-Spin Energy  =      -1.4702001209216058 [Eh]
	 SCS Correlation Energy    =      -1.6137165738034467 [Eh]
	 SCS Total Energy          =    -464.3950469053050369 [Eh]
	-----------------------------------------------------------


*** tstop() called on skystd12.palmetto.clemson.edu at Sat Oct 16 03:49:38 2021
Module time:
	user time   =       5.69 seconds =       0.09 minutes
	system time =       0.25 seconds =       0.00 minutes
	total time  =          6 seconds =       0.10 minutes
Total time:
	user time   =      18.66 seconds =       0.31 minutes
	system time =       0.77 seconds =       0.01 minutes
	total time  =         19 seconds =       0.32 minutes


Properties will be evaluated at   0.000000,   0.000000,   0.000000 [a0]
OEProp: No title given, name of density matrix used for the following properties is 'SCF density'
  Mulliken Charges: (a.u.)
   Center  Symbol    Alpha    Beta     Spin     Total
       1     C     2.97066  2.97066  0.00000  0.05868
       2     C     3.15065  3.15065  0.00000 -0.30130
       3     C     2.97138  2.97138  0.00000  0.05724
       4     C     3.02471  3.02471  0.00000 -0.04941
       5     C     2.99832  2.99832  0.00000  0.00336
       6     C     2.98526  2.98526  0.00000  0.02948
       7     H     0.44412  0.44412  0.00000  0.11176
       8     H     0.45351  0.45351  0.00000  0.09297
       9     H     0.46819  0.46819  0.00000  0.06362
      10     H     0.46559  0.46559  0.00000  0.06883
      11     H     0.46221  0.46221  0.00000  0.07558
      12     H     0.45290  0.45290  0.00000  0.09419
      13     H     0.47903  0.47903  0.00000  0.04194
      14     C     3.03734  3.03734  0.00000 -0.07469
      15     C     2.99961  2.99961  0.00000  0.00077
      16     C     2.99905  2.99905  0.00000  0.00190
      17     C     3.00593  3.00593  0.00000 -0.01187
      18     C     2.99974  2.99974  0.00000  0.00053
      19     C     3.01370  3.01370  0.00000 -0.02739
      20     H     0.49758  0.49758  0.00000  0.00484
      21     H     0.46956  0.46956  0.00000  0.06089
      22     H     0.46736  0.46736  0.00000  0.06528
      23     H     0.46841  0.46841  0.00000  0.06317
      24     H     0.48339  0.48339  0.00000  0.03321
      25     H     0.42334  0.42334  0.00000  0.15331
      26     H     0.41694  0.41694  0.00000  0.16612
      27     H     0.39151  0.39151  0.00000  0.21699

   Total alpha = 43.00000, Total beta = 43.00000, Total charge =  1.00000

    Molecular point group: c1
    Full point group: C1

    Geometry (in Angstrom), charge = 1, multiplicity = 1:

       Center              X                  Y                   Z               Mass       
    ------------   -----------------  -----------------  -----------------  -----------------
         C            1.077907759776     0.541020428307    -1.878474830315    12.000000000000
         C            0.722777759776     0.429799428307    -0.411062830315    12.000000000000
         C            1.550877759776     1.311704428307     0.542472169685    12.000000000000
         C            2.814332759776     0.481609428307     0.843861169685    12.000000000000
         C            3.093730759776    -0.293193571693    -0.460425830315    12.000000000000
         C            1.706333759776    -0.558546571693    -1.044572830315    12.000000000000
         H            1.382214759776    -1.585261571693    -1.239058830315     1.007825032230
         H            3.644566759776    -1.229384571693    -0.276963830315     1.007825032230
         H            3.702460759776     0.314463428307    -1.153842830315     1.007825032230
         H            2.579265759776    -0.243151571693     1.643563169685     1.007825032230
         H            3.668321759776     1.091031428307     1.185050169685     1.007825032230
         H            0.979408759776     1.552332428307     1.452805169685     1.007825032230
         H            1.815124759776     2.267570428307     0.054996169685     1.007825032230
         C           -0.650798240224     0.016578428307     0.003385169685    12.000000000000
         C           -0.820014240224    -0.891767571693     1.069482169685    12.000000000000
         C           -2.102281240224    -1.262534571693     1.500807169685    12.000000000000
         C           -3.238895240224    -0.729499571693     0.868850169685    12.000000000000
         C           -3.082875240224     0.175863428307    -0.192843830315    12.000000000000
         C           -1.797058240224     0.547191428307    -0.619069830315    12.000000000000
         H           -1.675654240224     1.259097428307    -1.441873830315     1.007825032230
         H           -3.963641240224     0.595522428307    -0.688723830315     1.007825032230
         H           -4.239798240224    -1.020863571693     1.200828169685     1.007825032230
         H           -2.216403240224    -1.972695571693     2.325667169685     1.007825032230
         H            0.066077759776    -1.317178571693     1.553407169685     1.007825032230
         H            0.317037759776     0.241631428307    -2.604827830315     1.007825032230
         H            1.719223759776     1.373075428307    -2.188284830315     1.007825032230
         H            0.865698129776     1.433514558307    -2.470915760315     1.007825032230



  Variable Map:
  ----------------------------------------------------------------------------
  "CURRENT CORRELATION ENERGY"           =>      -1.655716126080
  "CURRENT DIPOLE X"                     =>       4.324847069681
  "CURRENT DIPOLE Y"                     =>       2.356179750988
  "CURRENT DIPOLE Z"                     =>      -5.629802554855
  "CURRENT ENERGY"                       =>    -464.437046457582
  "CURRENT REFERENCE ENERGY"             =>    -462.781330331502
  "CUSTOM SCS-MP2 CORRELATION ENERGY"    =>      -1.613716573803
  "CUSTOM SCS-MP2 TOTAL ENERGY"          =>    -464.395046905305
  "HF TOTAL ENERGY"                      =>    -462.781330331502
  "MP2 CORRELATION ENERGY"               =>      -1.655716126080
  "MP2 DOUBLES ENERGY"                   =>      -1.655716126080
  "MP2 OPPOSITE-SPIN CORRELATION ENERGY" =>      -1.225166767435
  "MP2 SAME-SPIN CORRELATION ENERGY"     =>      -0.430549358646
  "MP2 SINGLES ENERGY"                   =>      -0.000000000000
  "MP2 TOTAL ENERGY"                     =>    -464.437046457582
  "NUCLEAR REPULSION ENERGY"             =>     681.180746457652
  "ONE-ELECTRON ENERGY"                  =>   -1962.534422364175
  "PCM POLARIZATION ENERGY"              =>       0.000000000000
  "PE ENERGY"                            =>       0.000000000000
  "SCF DIPOLE X"                         =>       4.324847069681
  "SCF DIPOLE Y"                         =>       2.356179750988
  "SCF DIPOLE Z"                         =>      -5.629802554855
  "SCF ITERATION ENERGY"                 =>    -462.781330331502
  "SCF ITERATIONS"                       =>      13.000000000000
  "SCF TOTAL ENERGY"                     =>    -462.781330331502
  "SCS-MP2 CORRELATION ENERGY"           =>      -1.613716573803
  "SCS-MP2 TOTAL ENERGY"                 =>    -464.395046905305
  "TWO-ELECTRON ENERGY"                  =>     818.572345575021



    Psi4 stopped on: Saturday, 16 October 2021 03:49AM
    Psi4 wall time for execution: 0:00:19.57

*** Psi4 exiting successfully. Buy a developer a beer!
