
    -----------------------------------------------------------------------
          Psi4: An Open-Source Ab Initio Electronic Structure Package
                               Psi4 1.4 release

                         Git: Rev {HEAD} 9485035 


    D. G. A. Smith, L. A. Burns, A. C. Simmonett, R. M. Parrish,
    M. C. Schieber, R. Galvelis, P. Kraus, H. Kruse, R. Di Remigio,
    A. Alenaizan, A. M. James, S. Lehtola, J. P. Misiewicz, M. Scheurer,
    R. A. Shaw, J. B. Schriber, Y. Xie, Z. L. Glick, D. A. Sirianni,
    J. S. O'Brien, J. M. Waldrop, A. Kumar, E. G. Hohenstein,
    B. P. Pritchard, B. R. Brooks, H. F. Schaefer III, A. Yu. Sokolov,
    K. Patkowski, A. E. DePrince III, U. Bozkaya, R. A. King,
    F. A. Evangelista, J. M. Turney, T. D. Crawford, C. D. Sherrill,
    J. Chem. Phys. 152(18) 184108 (2020). https://doi.org/10.1063/5.0006002

                            Additional Code Authors
    E. T. Seidl, C. L. Janssen, E. F. Valeev, M. L. Leininger,
    J. F. Gonthier, R. M. Richard, H. R. McAlexander, M. Saitow, X. Wang,
    P. Verma, and M. H. Lechner

             Previous Authors, Complete List of Code Contributors,
                       and Citations for Specific Modules
    https://github.com/psi4/psi4/blob/master/codemeta.json
    https://github.com/psi4/psi4/graphs/contributors
    http://psicode.org/psi4manual/master/introduction.html#citing-psifour

    -----------------------------------------------------------------------


    Psi4 started on: Wednesday, 08 December 2021 08:35PM

    Process ID: 2945525
    Host:       skystd02.palmetto.clemson.edu
    PSIDATADIR: /home/maxbuskirk/.conda/envs/psifour/share/psi4
    Memory:     500.0 MiB
    Threads:    1
    
  ==> Input File <==

--------------------------------------------------------------------------
molecule mol {
0 1
 C     0.355130     0.111221    -1.467412
 C    -0.000000    -0.000000     0.000000
 C     0.828100     0.881905     0.953535
 C     2.091555     0.051810     1.254924
 C     2.370953    -0.722993    -0.049363
 C     0.983556    -0.988346    -0.633510
 C    -1.373576    -0.413221     0.414448
 C    -1.542792    -1.321567     1.480545
 C    -2.825059    -1.692334     1.911870
 C    -3.961673    -1.159299     1.279913
 C    -3.805653    -0.253936     0.218219
 C    -2.519836     0.117392    -0.208007
 H    -2.398432     0.829298    -1.030811
 H    -4.686419     0.165723    -0.277661
 O    -5.224199    -1.526822     1.698665
 H    -2.939181    -2.402495     2.736730
 H    -0.656700    -1.746978     1.964470
 H     0.659437    -2.015061    -0.827996
 H    -0.405740    -0.188168    -2.193765
 H     0.996446     0.943276    -1.777222
 H     2.921789    -1.659184     0.134099
 H     2.979683    -0.115336    -0.742780
 H     1.856488    -0.672951     2.054626
 H     2.945544     0.661232     1.596113
 H     0.256631     1.122533     1.863868
 H     1.092347     1.837771     0.466059
 C    -6.184001    -0.867876     0.921124
 H    -7.180299    -1.157899     1.251575
 H    -6.063944     0.208814     1.031793
 H    -6.054349    -1.141975    -0.124811
}

set scf_type df
set basis cc-pVTZ
set reference rhf

mol.update_geometry()
mol.symmetrize(1e-3)

e, wfn = optimize('ccsd', return_wfn=True)
oeprop(wfn, "MULLIKEN_CHARGES")
mol.print_out()
print_variables()
--------------------------------------------------------------------------

Scratch directory: /local_scratch/pbs.4122845.pbs02/
gradient() will perform analytic gradient computation.

*** tstart() called on skystd02.palmetto.clemson.edu
*** at Wed Dec  8 20:35:28 2021

   => Loading Basis Set <=

    Name: CC-PVTZ
    Role: ORBITAL
    Keyword: BASIS
    atoms 1-12, 27            entry C          line   186 file /home/maxbuskirk/.conda/envs/psifour/share/psi4/basis/cc-pvtz.gbs 
    atoms 13-14, 16-26, 28-30 entry H          line    23 file /home/maxbuskirk/.conda/envs/psifour/share/psi4/basis/cc-pvtz.gbs 
    atoms 15                  entry O          line   262 file /home/maxbuskirk/.conda/envs/psifour/share/psi4/basis/cc-pvtz.gbs 


         ---------------------------------------------------------
                                   SCF
               by Justin Turney, Rob Parrish, Andy Simmonett
                          and Daniel G. A. Smith
                              RHF Reference
                        1 Threads,    500 MiB Core
         ---------------------------------------------------------

  ==> Geometry <==

    Molecular point group: c1
    Full point group: C1

    Geometry (in Angstrom), charge = 0, multiplicity = 1:

       Center              X                  Y                   Z               Mass       
    ------------   -----------------  -----------------  -----------------  -----------------
         C            1.882703824103     0.668744759916    -2.032251349099    12.000000000000
         C            1.527573824103     0.557523759916    -0.564839349099    12.000000000000
         C            2.355673824103     1.439428759916     0.388695650901    12.000000000000
         C            3.619128824103     0.609333759916     0.690084650901    12.000000000000
         C            3.898526824103    -0.165469240084    -0.614202349099    12.000000000000
         C            2.511129824103    -0.430822240084    -1.198349349099    12.000000000000
         C            0.153997824103     0.144302759916    -0.150391349099    12.000000000000
         C           -0.015218175897    -0.764043240084     0.915705650901    12.000000000000
         C           -1.297485175897    -1.134810240084     1.347030650901    12.000000000000
         C           -2.434099175897    -0.601775240084     0.715073650901    12.000000000000
         C           -2.278079175897     0.303587759916    -0.346620349099    12.000000000000
         C           -0.992262175897     0.674915759916    -0.772846349099    12.000000000000
         H           -0.870858175897     1.386821759916    -1.595650349099     1.007825032230
         H           -3.158845175897     0.723246759916    -0.842500349099     1.007825032230
         O           -3.696625175897    -0.969298240084     1.133825650901    15.994914619570
         H           -1.411607175897    -1.844971240084     2.171890650901     1.007825032230
         H            0.870873824103    -1.189454240084     1.399630650901     1.007825032230
         H            2.187010824103    -1.457537240084    -1.392835349099     1.007825032230
         H            1.121833824103     0.369355759916    -2.758604349099     1.007825032230
         H            2.524019824103     1.500799759916    -2.342061349099     1.007825032230
         H            4.449362824103    -1.101660240084    -0.430740349099     1.007825032230
         H            4.507256824103     0.442187759916    -1.307619349099     1.007825032230
         H            3.384061824103    -0.115427240084     1.489786650901     1.007825032230
         H            4.473117824103     1.218755759916     1.031273650901     1.007825032230
         H            1.784204824103     1.680056759916     1.299028650901     1.007825032230
         H            2.619920824103     2.395294759916    -0.098780349099     1.007825032230
         C           -4.656427175897    -0.310352240084     0.356284650901    12.000000000000
         H           -5.652725175897    -0.600375240084     0.686735650901     1.007825032230
         H           -4.536370175897     0.766337759916     0.466953650901     1.007825032230
         H           -4.526775175897    -0.584451240084    -0.689650349099     1.007825032230

  Running in c1 symmetry.

  Rotational constants: A =      0.06986  B =      0.01117  C =      0.01049 [cm^-1]
  Rotational constants: A =   2094.25887  B =    334.79267  C =    314.40141 [MHz]
  Nuclear repulsion =  862.218940092971707

  Charge       = 0
  Multiplicity = 1
  Electrons    = 102
  Nalpha       = 51
  Nbeta        = 51

  ==> Algorithm <==

  SCF Algorithm Type is DF.
  DIIS enabled.
  MOM disabled.
  Fractional occupation disabled.
  Guess Type is SAD.
  Energy threshold   = 1.00e-10
  Density threshold  = 1.00e-10
  Integral threshold = 1.00e-12

  ==> Primary Basis <==

  Basis Set: CC-PVTZ
    Blend: CC-PVTZ
    Number of shells: 236
    Number of basis functions: 644
    Number of Cartesian functions: 730
    Spherical Harmonics?: true
    Max angular momentum: 3

   => Loading Basis Set <=

    Name: (CC-PVTZ AUX)
    Role: JKFIT
    Keyword: DF_BASIS_SCF
    atoms 1-12, 27            entry C          line   125 file /home/maxbuskirk/.conda/envs/psifour/share/psi4/basis/cc-pvtz-jkfit.gbs 
    atoms 13-14, 16-26, 28-30 entry H          line    51 file /home/maxbuskirk/.conda/envs/psifour/share/psi4/basis/cc-pvtz-jkfit.gbs 
    atoms 15                  entry O          line   229 file /home/maxbuskirk/.conda/envs/psifour/share/psi4/basis/cc-pvtz-jkfit.gbs 

  ==> Integral Setup <==

  ==> DiskDFJK: Density-Fitted J/K Matrices <==

    J tasked:                  Yes
    K tasked:                  Yes
    wK tasked:                  No
    OpenMP threads:              1
    Integrals threads:           1
    Memory [MiB]:              375
    Algorithm:                Disk
    Integral Cache:           NONE
    Schwarz Cutoff:          1E-12
    Fitting Condition:       1E-10

   => Auxiliary Basis Set <=

  Basis Set: (CC-PVTZ AUX)
    Blend: CC-PVTZ-JKFIT
    Number of shells: 510
    Number of basis functions: 1586
    Number of Cartesian functions: 1904
    Spherical Harmonics?: true
    Max angular momentum: 4

  Minimum eigenvalue in the overlap matrix is 3.2350448566E-05.
  Reciprocal condition number of the overlap matrix is 3.3676454368E-06.
    Using symmetric orthogonalization.

  ==> Pre-Iterations <==

  SCF Guess: Superposition of Atomic Densities via on-the-fly atomic UHF (no occupation information).

   -------------------------
    Irrep   Nso     Nmo    
   -------------------------
     A        644     644 
   -------------------------
    Total     644     644
   -------------------------

  ==> Iterations <==

                           Total Energy        Delta E     RMS |[F,P]|

   @DF-RHF iter SAD:  -576.67231887649916   -5.76672e+02   0.00000e+00 
   @DF-RHF iter   1:  -576.24314713540616    4.29172e-01   1.14028e-03 DIIS
   @DF-RHF iter   2:  -576.52519229883319   -2.82045e-01   5.40933e-04 DIIS
   @DF-RHF iter   3:  -576.58601959548969   -6.08273e-02   1.41150e-04 DIIS
   @DF-RHF iter   4:  -576.59157956991464   -5.55997e-03   5.62573e-05 DIIS
   @DF-RHF iter   5:  -576.59234085820822   -7.61288e-04   1.18129e-05 DIIS
   @DF-RHF iter   6:  -576.59238444006246   -4.35819e-05   4.01098e-06 DIIS
   @DF-RHF iter   7:  -576.59238951769089   -5.07763e-06   1.14571e-06 DIIS
   @DF-RHF iter   8:  -576.59239014817899   -6.30488e-07   3.97161e-07 DIIS
   @DF-RHF iter   9:  -576.59239024440467   -9.62257e-08   1.60115e-07 DIIS
   @DF-RHF iter  10:  -576.59239026190437   -1.74997e-08   7.28781e-08 DIIS
   @DF-RHF iter  11:  -576.59239026733076   -5.42639e-09   3.73944e-08 DIIS
   @DF-RHF iter  12:  -576.59239026868681   -1.35606e-09   1.82110e-08 DIIS
   @DF-RHF iter  13:  -576.59239026905743   -3.70619e-10   5.40546e-09 DIIS
   @DF-RHF iter  14:  -576.59239026908756   -3.01270e-11   1.78235e-09 DIIS
   @DF-RHF iter  15:  -576.59239026908722    3.41061e-13   5.57413e-10 DIIS
   @DF-RHF iter  16:  -576.59239026908892   -1.70530e-12   2.47110e-10 DIIS
   @DF-RHF iter  17:  -576.59239026908483    4.09273e-12   1.38767e-10 DIIS
   @DF-RHF iter  18:  -576.59239026909063   -5.79803e-12   6.98903e-11 DIIS
  Energy and wave function converged.


  ==> Post-Iterations <==

    Orbital Energies [Eh]
    ---------------------

    Doubly Occupied:                                                      

       1A    -20.583664     2A    -11.297530     3A    -11.274767  
       4A    -11.237889     5A    -11.236714     6A    -11.233783  
       7A    -11.232579     8A    -11.232290     9A    -11.229317  
      10A    -11.225879    11A    -11.224529    12A    -11.221656  
      13A    -11.221023    14A    -11.220289    15A     -1.411331  
      16A     -1.177523    17A     -1.132175    18A     -1.033281  
      19A     -1.013262    20A     -1.008145    21A     -0.955801  
      22A     -0.935985    23A     -0.844964    24A     -0.817880  
      25A     -0.808078    26A     -0.771435    27A     -0.736916  
      28A     -0.712546    29A     -0.675827    30A     -0.662035  
      31A     -0.659514    32A     -0.629818    33A     -0.621956  
      34A     -0.593201    35A     -0.584947    36A     -0.573103  
      37A     -0.566381    38A     -0.561631    39A     -0.540192  
      40A     -0.521533    41A     -0.514410    42A     -0.481447  
      43A     -0.478962    44A     -0.477851    45A     -0.469462  
      46A     -0.466590    47A     -0.452655    48A     -0.404942  
      49A     -0.383464    50A     -0.335443    51A     -0.300528  

    Virtual:                                                              

      52A      0.119954    53A      0.138829    54A      0.143574  
      55A      0.146117    56A      0.158142    57A      0.166004  
      58A      0.174620    59A      0.184228    60A      0.186943  
      61A      0.199838    62A      0.206630    63A      0.213188  
      64A      0.217859    65A      0.223636    66A      0.228160  
      67A      0.238100    68A      0.256921    69A      0.265969  
      70A      0.273472    71A      0.283536    72A      0.290727  
      73A      0.308434    74A      0.321290    75A      0.336399  
      76A      0.347389    77A      0.357829    78A      0.372834  
      79A      0.377266    80A      0.388335    81A      0.393701  
      82A      0.408604    83A      0.419580    84A      0.424998  
      85A      0.433235    86A      0.440060    87A      0.451293  
      88A      0.463475    89A      0.466018    90A      0.473932  
      91A      0.485902    92A      0.494090    93A      0.502571  
      94A      0.508472    95A      0.511630    96A      0.527113  
      97A      0.532521    98A      0.543413    99A      0.547174  
     100A      0.559763   101A      0.568434   102A      0.575795  
     103A      0.578937   104A      0.583459   105A      0.591695  
     106A      0.595629   107A      0.598824   108A      0.601042  
     109A      0.608709   110A      0.612395   111A      0.617265  
     112A      0.618710   113A      0.623577   114A      0.632688  
     115A      0.634991   116A      0.643376   117A      0.643777  
     118A      0.646792   119A      0.654621   120A      0.655850  
     121A      0.657241   122A      0.665879   123A      0.671221  
     124A      0.677041   125A      0.688154   126A      0.695347  
     127A      0.699560   128A      0.707909   129A      0.723746  
     130A      0.725031   131A      0.730004   132A      0.736103  
     133A      0.747802   134A      0.757265   135A      0.769898  
     136A      0.779863   137A      0.822735   138A      0.827369  
     139A      0.840006   140A      0.847382   141A      0.852650  
     142A      0.859625   143A      0.871407   144A      0.881700  
     145A      0.894087   146A      0.911517   147A      0.913710  
     148A      0.919302   149A      0.929321   150A      0.941275  
     151A      0.963132   152A      0.975205   153A      0.978101  
     154A      0.998203   155A      1.005975   156A      1.009614  
     157A      1.017567   158A      1.020219   159A      1.030352  
     160A      1.033117   161A      1.040214   162A      1.045311  
     163A      1.058944   164A      1.061792   165A      1.083122  
     166A      1.087549   167A      1.096870   168A      1.099851  
     169A      1.120620   170A      1.130347   171A      1.145076  
     172A      1.152329   173A      1.166958   174A      1.169306  
     175A      1.184590   176A      1.189730   177A      1.196973  
     178A      1.200996   179A      1.210063   180A      1.221547  
     181A      1.222608   182A      1.226855   183A      1.232743  
     184A      1.241960   185A      1.255057   186A      1.265637  
     187A      1.277818   188A      1.286562   189A      1.287193  
     190A      1.299994   191A      1.309544   192A      1.322179  
     193A      1.328604   194A      1.334604   195A      1.343686  
     196A      1.346617   197A      1.356300   198A      1.363447  
     199A      1.368965   200A      1.382770   201A      1.391794  
     202A      1.405046   203A      1.415466   204A      1.426048  
     205A      1.426812   206A      1.436381   207A      1.449691  
     208A      1.456450   209A      1.460547   210A      1.469906  
     211A      1.472597   212A      1.481182   213A      1.487602  
     214A      1.505396   215A      1.509828   216A      1.514662  
     217A      1.523999   218A      1.529198   219A      1.533477  
     220A      1.541791   221A      1.550629   222A      1.565864  
     223A      1.569491   224A      1.576266   225A      1.580594  
     226A      1.583022   227A      1.590260   228A      1.605417  
     229A      1.613039   230A      1.622623   231A      1.630368  
     232A      1.638503   233A      1.651054   234A      1.671603  
     235A      1.673523   236A      1.688638   237A      1.694062  
     238A      1.706555   239A      1.712886   240A      1.718901  
     241A      1.728971   242A      1.740988   243A      1.748783  
     244A      1.749634   245A      1.762717   246A      1.776550  
     247A      1.793061   248A      1.798223   249A      1.810167  
     250A      1.832904   251A      1.850421   252A      1.876607  
     253A      1.882828   254A      1.903797   255A      1.915779  
     256A      1.929522   257A      1.945958   258A      1.977256  
     259A      1.997287   260A      2.006418   261A      2.016802  
     262A      2.036854   263A      2.049055   264A      2.067646  
     265A      2.126862   266A      2.165491   267A      2.181451  
     268A      2.188504   269A      2.232888   270A      2.261389  
     271A      2.327896   272A      2.364987   273A      2.373324  
     274A      2.377734   275A      2.434839   276A      2.460961  
     277A      2.476066   278A      2.511063   279A      2.551614  
     280A      2.556479   281A      2.562546   282A      2.577083  
     283A      2.597758   284A      2.606387   285A      2.612106  
     286A      2.635417   287A      2.646389   288A      2.669011  
     289A      2.673696   290A      2.699558   291A      2.703023  
     292A      2.709323   293A      2.725724   294A      2.743772  
     295A      2.754193   296A      2.764090   297A      2.784297  
     298A      2.797575   299A      2.803383   300A      2.818463  
     301A      2.830861   302A      2.832882   303A      2.849639  
     304A      2.853760   305A      2.864700   306A      2.868245  
     307A      2.871995   308A      2.884515   309A      2.896279  
     310A      2.904090   311A      2.920212   312A      2.925810  
     313A      2.931102   314A      2.941011   315A      2.948769  
     316A      2.965514   317A      2.971524   318A      2.984315  
     319A      2.990580   320A      3.005619   321A      3.014386  
     322A      3.018858   323A      3.023493   324A      3.027740  
     325A      3.033096   326A      3.044706   327A      3.053590  
     328A      3.065318   329A      3.070053   330A      3.078200  
     331A      3.086587   332A      3.089833   333A      3.101837  
     334A      3.107231   335A      3.127755   336A      3.136113  
     337A      3.146366   338A      3.148040   339A      3.163577  
     340A      3.170525   341A      3.176329   342A      3.183455  
     343A      3.202787   344A      3.220508   345A      3.237786  
     346A      3.239603   347A      3.252326   348A      3.254927  
     349A      3.272175   350A      3.276503   351A      3.284824  
     352A      3.292764   353A      3.301314   354A      3.306377  
     355A      3.311257   356A      3.317600   357A      3.332072  
     358A      3.344417   359A      3.348304   360A      3.361456  
     361A      3.363754   362A      3.372261   363A      3.378313  
     364A      3.385615   365A      3.387585   366A      3.393836  
     367A      3.399336   368A      3.405072   369A      3.408928  
     370A      3.416021   371A      3.419811   372A      3.425764  
     373A      3.431581   374A      3.444987   375A      3.447285  
     376A      3.453670   377A      3.464329   378A      3.465764  
     379A      3.473570   380A      3.480378   381A      3.492039  
     382A      3.497025   383A      3.513438   384A      3.515624  
     385A      3.534766   386A      3.536544   387A      3.537860  
     388A      3.553589   389A      3.558344   390A      3.570116  
     391A      3.584064   392A      3.586781   393A      3.595343  
     394A      3.603926   395A      3.613239   396A      3.624736  
     397A      3.627815   398A      3.636076   399A      3.646089  
     400A      3.650710   401A      3.665502   402A      3.670187  
     403A      3.677051   404A      3.681614   405A      3.687777  
     406A      3.693672   407A      3.706761   408A      3.712029  
     409A      3.717755   410A      3.722731   411A      3.727376  
     412A      3.741372   413A      3.743310   414A      3.755796  
     415A      3.761797   416A      3.775457   417A      3.785031  
     418A      3.788896   419A      3.805062   420A      3.808758  
     421A      3.821014   422A      3.821744   423A      3.845220  
     424A      3.857719   425A      3.877861   426A      3.883920  
     427A      3.899458   428A      3.902726   429A      3.908582  
     430A      3.914445   431A      3.923798   432A      3.939577  
     433A      3.944118   434A      3.956772   435A      3.968041  
     436A      3.985129   437A      3.996815   438A      4.001738  
     439A      4.011186   440A      4.015492   441A      4.031644  
     442A      4.038452   443A      4.049902   444A      4.060519  
     445A      4.070145   446A      4.073888   447A      4.082615  
     448A      4.090810   449A      4.102213   450A      4.112371  
     451A      4.122472   452A      4.127530   453A      4.132769  
     454A      4.137698   455A      4.143773   456A      4.153965  
     457A      4.158115   458A      4.162227   459A      4.169776  
     460A      4.179325   461A      4.189403   462A      4.198228  
     463A      4.209284   464A      4.211073   465A      4.216260  
     466A      4.236250   467A      4.236844   468A      4.250194  
     469A      4.262020   470A      4.279924   471A      4.280763  
     472A      4.295401   473A      4.301692   474A      4.309231  
     475A      4.324976   476A      4.328277   477A      4.333220  
     478A      4.354766   479A      4.365699   480A      4.370325  
     481A      4.381551   482A      4.390497   483A      4.393552  
     484A      4.397394   485A      4.407427   486A      4.418777  
     487A      4.434065   488A      4.442570   489A      4.449745  
     490A      4.460549   491A      4.467154   492A      4.476593  
     493A      4.481644   494A      4.484113   495A      4.499549  
     496A      4.507167   497A      4.521527   498A      4.524327  
     499A      4.542702   500A      4.556160   501A      4.565063  
     502A      4.568212   503A      4.581188   504A      4.586007  
     505A      4.598485   506A      4.602476   507A      4.612558  
     508A      4.617932   509A      4.624178   510A      4.627125  
     511A      4.639742   512A      4.648431   513A      4.652652  
     514A      4.668202   515A      4.674584   516A      4.687214  
     517A      4.700672   518A      4.711772   519A      4.715251  
     520A      4.719774   521A      4.746645   522A      4.752350  
     523A      4.767677   524A      4.794161   525A      4.800997  
     526A      4.812695   527A      4.816449   528A      4.827405  
     529A      4.838261   530A      4.873947   531A      4.888155  
     532A      4.892615   533A      4.927073   534A      4.933467  
     535A      4.953161   536A      4.961791   537A      4.991818  
     538A      5.021784   539A      5.025937   540A      5.033931  
     541A      5.046970   542A      5.055543   543A      5.067088  
     544A      5.082616   545A      5.086943   546A      5.103758  
     547A      5.116634   548A      5.135586   549A      5.149183  
     550A      5.158082   551A      5.168015   552A      5.198991  
     553A      5.210465   554A      5.234092   555A      5.241640  
     556A      5.260526   557A      5.279694   558A      5.295018  
     559A      5.297290   560A      5.318350   561A      5.324866  
     562A      5.343819   563A      5.348276   564A      5.362084  
     565A      5.370508   566A      5.380398   567A      5.385060  
     568A      5.393110   569A      5.410497   570A      5.415842  
     571A      5.431466   572A      5.457169   573A      5.462695  
     574A      5.479902   575A      5.484640   576A      5.498236  
     577A      5.515856   578A      5.533933   579A      5.549729  
     580A      5.569476   581A      5.577924   582A      5.584689  
     583A      5.608281   584A      5.616915   585A      5.633604  
     586A      5.659010   587A      5.666824   588A      5.690904  
     589A      5.716356   590A      5.722955   591A      5.751900  
     592A      5.782976   593A      5.797215   594A      5.825382  
     595A      5.838326   596A      5.841322   597A      5.870295  
     598A      5.900157   599A      5.919964   600A      5.971706  
     601A      5.983423   602A      6.000233   603A      6.048914  
     604A      6.071675   605A      6.110757   606A      6.143584  
     607A      6.178266   608A      6.219278   609A      6.230130  
     610A      6.260174   611A      6.271236   612A      6.340719  
     613A      6.363097   614A      6.382724   615A      6.390639  
     616A      6.398266   617A      6.428902   618A      6.432848  
     619A      6.437619   620A      6.524976   621A      6.628181  
     622A      6.777341   623A      6.789900   624A      7.026791  
     625A      7.271723   626A      7.309054   627A      7.383850  
     628A      7.431552   629A      7.808439   630A      7.928112  
     631A      9.574496   632A     11.944932   633A     12.117569  
     634A     12.457856   635A     12.567403   636A     12.822134  
     637A     13.192946   638A     13.308815   639A     13.456526  
     640A     13.758274   641A     13.830473   642A     14.015205  
     643A     14.470492   644A     15.943960  

    Final Occupation by Irrep:
              A 
    DOCC [    51 ]

  @DF-RHF Final Energy:  -576.59239026909063

   => Energetics <=

    Nuclear Repulsion Energy =            862.2189400929717067
    One-Electron Energy =               -2493.6484135241271360
    Two-Electron Energy =                1054.8370831620648005
    Total Energy =                       -576.5923902690906289

Computation Completed


Properties will be evaluated at   0.000000,   0.000000,   0.000000 [a0]

Properties computed using the SCF density matrix

  Nuclear Dipole Moment: [e a0]
     X:     7.2612      Y:     3.3599      Z:    -2.7255

  Electronic Dipole Moment: [e a0]
     X:    -7.3227      Y:    -3.0549      Z:     2.3791

  Dipole Moment: [e a0]
     X:    -0.0615      Y:     0.3050      Z:    -0.3465     Total:     0.4657

  Dipole Moment: [D]
     X:    -0.1563      Y:     0.7753      Z:    -0.8806     Total:     1.1836


*** tstop() called on skystd02.palmetto.clemson.edu at Wed Dec  8 20:38:05 2021
Module time:
	user time   =     143.58 seconds =       2.39 minutes
	system time =      12.83 seconds =       0.21 minutes
	total time  =        157 seconds =       2.62 minutes
Total time:
	user time   =     143.58 seconds =       2.39 minutes
	system time =      12.83 seconds =       0.21 minutes
	total time  =        157 seconds =       2.62 minutes
 MINTS: Wrapper to libmints.
   by Justin Turney

   Calculation information:
      Number of threads:                 1
      Number of atoms:                  30
      Number of AO shells:             236
      Number of SO shells:             236
      Number of primitives:            492
      Number of atomic orbitals:       730
      Number of basis functions:       644

      Number of irreps:                  1
      Integral cutoff                 1.00e-12
      Number of functions per irrep: [ 644 ]

 OEINTS: Overlap, kinetic, potential, dipole, and quadrupole integrals
         stored in file 35.

      Computing two-electron integrals...