
    -----------------------------------------------------------------------
          Psi4: An Open-Source Ab Initio Electronic Structure Package
                               Psi4 1.4 release

                         Git: Rev {HEAD} 9485035 


    D. G. A. Smith, L. A. Burns, A. C. Simmonett, R. M. Parrish,
    M. C. Schieber, R. Galvelis, P. Kraus, H. Kruse, R. Di Remigio,
    A. Alenaizan, A. M. James, S. Lehtola, J. P. Misiewicz, M. Scheurer,
    R. A. Shaw, J. B. Schriber, Y. Xie, Z. L. Glick, D. A. Sirianni,
    J. S. O'Brien, J. M. Waldrop, A. Kumar, E. G. Hohenstein,
    B. P. Pritchard, B. R. Brooks, H. F. Schaefer III, A. Yu. Sokolov,
    K. Patkowski, A. E. DePrince III, U. Bozkaya, R. A. King,
    F. A. Evangelista, J. M. Turney, T. D. Crawford, C. D. Sherrill,
    J. Chem. Phys. 152(18) 184108 (2020). https://doi.org/10.1063/5.0006002

                            Additional Code Authors
    E. T. Seidl, C. L. Janssen, E. F. Valeev, M. L. Leininger,
    J. F. Gonthier, R. M. Richard, H. R. McAlexander, M. Saitow, X. Wang,
    P. Verma, and M. H. Lechner

             Previous Authors, Complete List of Code Contributors,
                       and Citations for Specific Modules
    https://github.com/psi4/psi4/blob/master/codemeta.json
    https://github.com/psi4/psi4/graphs/contributors
    http://psicode.org/psi4manual/master/introduction.html#citing-psifour

    -----------------------------------------------------------------------


    Psi4 started on: Thursday, 17 February 2022 11:52PM

    Process ID: 3276188
    Host:       skylm005.palmetto.clemson.edu
    PSIDATADIR: /home/maxbuskirk/.conda/envs/psifour/share/psi4
    Memory:     500.0 MiB
    Threads:    1
    
  ==> Input File <==

--------------------------------------------------------------------------
memory 62 GB

molecule mol {
1 1
units bohr
         C           -1.784424063438     1.432244308560    -1.636100519621
         C            0.380298675195     0.429531059953    -0.459831044199
         C            0.062020497239    -1.286994107202     1.554800308973
         C           -2.361112952473    -1.987642193560     2.369886430036
         C           -4.509002122834    -0.980352028277     1.175660776970
         C           -4.214167052740     0.730536085846    -0.830650112072
         C            2.977474845787     1.210405579241    -1.243024257443
         C            4.542357050278     2.876964497912     0.558895743596
         C            6.929940972118     1.308312289801     1.128438410821
         C            7.457926672119    -0.155853181383    -1.336306808174
         C            4.836126314837    -0.657297677951    -2.440184655182
         C            3.648573284720     1.420582808640    -4.016031050653
         H            4.223630172780    -2.597507836851    -2.807709930417
         H            8.498855852162    -1.924997772501    -0.989613873745
         H            8.608259656469     0.992452126835    -2.646675028910
         H            6.485728720985    -0.061287506612     2.639656172802
         H            8.543746296272     2.459952964629     1.773192177840
         H            3.462437151089     3.331685516029     2.279175796562
         H            5.041711509752     4.683289450549    -0.362300389138
         H           -1.554904764748     2.777551675630    -3.190974734552
         H           -5.878573573355     1.523576661930    -1.767727503164
         CL          -7.517221237154    -1.856047335362     2.173422943129
         H           -2.576772277363    -3.329651988541     3.928645921881
         H            1.736491699198    -2.090904387960     2.469286024235
         H            2.210737367643     0.854819593665    -5.388639291058
         H            4.860484884594     2.992938879958    -4.601487101581
         H            3.247556393363     3.107152037254    -5.135582286146
}


set scf_type df
set opt_type ts
set basis cc-pVDZ
set reference rhf
set geom_maxiter 1000
set opt_coordinates cartesian
set full_hess_every 0
set dynamic_level 1

mol.update_geometry()
mol.symmetrize(1e-3)

e, wfn = optimize('CCSD', return_wfn=True)
oeprop(wfn, "MULLIKEN_CHARGES")
mol.print_out()
print_variables()
--------------------------------------------------------------------------

  Memory set to  57.742 GiB by Python driver.

Scratch directory: /scratch1/maxbuskirk/
gradient() will perform analytic gradient computation.

*** tstart() called on skylm005.palmetto.clemson.edu
*** at Thu Feb 17 23:52:35 2022

   => Loading Basis Set <=

    Name: CC-PVDZ
    Role: ORBITAL
    Keyword: BASIS
    atoms 1-12         entry C          line   138 file /home/maxbuskirk/.conda/envs/psifour/share/psi4/basis/cc-pvdz.gbs 
    atoms 13-21, 23-27 entry H          line    22 file /home/maxbuskirk/.conda/envs/psifour/share/psi4/basis/cc-pvdz.gbs 
    atoms 22           entry CL         line   658 file /home/maxbuskirk/.conda/envs/psifour/share/psi4/basis/cc-pvdz.gbs 


         ---------------------------------------------------------
                                   SCF
               by Justin Turney, Rob Parrish, Andy Simmonett
                          and Daniel G. A. Smith
                              RHF Reference
                        1 Threads,  59127 MiB Core
         ---------------------------------------------------------

  ==> Geometry <==

    Molecular point group: c1
    Full point group: C1

    Geometry (in Bohr), charge = 1, multiplicity = 1:

       Center              X                  Y                   Z               Mass       
    ------------   -----------------  -----------------  -----------------  -----------------
         C           -1.784424063438     1.432244308560    -1.636100519621    12.000000000000
         C            0.380298675195     0.429531059953    -0.459831044199    12.000000000000
         C            0.062020497239    -1.286994107202     1.554800308973    12.000000000000
         C           -2.361112952473    -1.987642193560     2.369886430036    12.000000000000
         C           -4.509002122834    -0.980352028277     1.175660776970    12.000000000000
         C           -4.214167052740     0.730536085846    -0.830650112072    12.000000000000
         C            2.977474845787     1.210405579241    -1.243024257443    12.000000000000
         C            4.542357050278     2.876964497912     0.558895743596    12.000000000000
         C            6.929940972118     1.308312289801     1.128438410821    12.000000000000
         C            7.457926672119    -0.155853181383    -1.336306808174    12.000000000000
         C            4.836126314837    -0.657297677951    -2.440184655182    12.000000000000
         C            3.648573284720     1.420582808640    -4.016031050653    12.000000000000
         H            4.223630172780    -2.597507836851    -2.807709930417     1.007825032230
         H            8.498855852162    -1.924997772501    -0.989613873745     1.007825032230
         H            8.608259656469     0.992452126835    -2.646675028910     1.007825032230
         H            6.485728720985    -0.061287506612     2.639656172802     1.007825032230
         H            8.543746296272     2.459952964629     1.773192177840     1.007825032230
         H            3.462437151089     3.331685516029     2.279175796562     1.007825032230
         H            5.041711509752     4.683289450549    -0.362300389138     1.007825032230
         H           -1.554904764748     2.777551675630    -3.190974734552     1.007825032230
         H           -5.878573573355     1.523576661930    -1.767727503164     1.007825032230
         CL          -7.517221237154    -1.856047335362     2.173422943129    34.968852682000
         H           -2.576772277363    -3.329651988541     3.928645921881     1.007825032230
         H            1.736491699198    -2.090904387960     2.469286024235     1.007825032230
         H            2.210737367643     0.854819593665    -5.388639291058     1.007825032230
         H            4.860484884594     2.992938879958    -4.601487101581     1.007825032230
         H            3.247556393363     3.107152037254    -5.135582286146     1.007825032230

  Running in c1 symmetry.

  Rotational constants: A =      0.07019  B =      0.01064  C =      0.01000 [cm^-1]
  Rotational constants: A =   2104.19112  B =    318.84983  C =    299.85006 [MHz]
  Nuclear repulsion =  844.849023040900079

  Charge       = 1
  Multiplicity = 1
  Electrons    = 102
  Nalpha       = 51
  Nbeta        = 51

  ==> Algorithm <==

  SCF Algorithm Type is DF.
  DIIS enabled.
  MOM disabled.
  Fractional occupation disabled.
  Guess Type is SAD.
  Energy threshold   = 1.00e-10
  Density threshold  = 1.00e-10
  Integral threshold = 1.00e-12

  ==> Primary Basis <==

  Basis Set: CC-PVDZ
    Blend: CC-PVDZ
    Number of shells: 122
    Number of basis functions: 256
    Number of Cartesian functions: 269
    Spherical Harmonics?: true
    Max angular momentum: 2

   => Loading Basis Set <=

    Name: (CC-PVDZ AUX)
    Role: JKFIT
    Keyword: DF_BASIS_SCF
    atoms 1-12         entry C          line   121 file /home/maxbuskirk/.conda/envs/psifour/share/psi4/basis/cc-pvdz-jkfit.gbs 
    atoms 13-21, 23-27 entry H          line    51 file /home/maxbuskirk/.conda/envs/psifour/share/psi4/basis/cc-pvdz-jkfit.gbs 
    atoms 22           entry CL         line   667 file /home/maxbuskirk/.conda/envs/psifour/share/psi4/basis/cc-pvdz-jkfit.gbs 

  ==> Integral Setup <==

  DFHelper Memory: AOs need 0.577 GiB; user supplied 43.306 GiB. Using in-core AOs.

  ==> MemDFJK: Density-Fitted J/K Matrices <==

    J tasked:                   Yes
    K tasked:                   Yes
    wK tasked:                   No
    OpenMP threads:               1
    Memory [MiB]:             44345
    Algorithm:                 Core
    Schwarz Cutoff:           1E-12
    Mask sparsity (%):      10.8765
    Fitting Condition:        1E-10

   => Auxiliary Basis Set <=

  Basis Set: (CC-PVDZ AUX)
    Blend: CC-PVDZ-JKFIT
    Number of shells: 450
    Number of basis functions: 1274
    Number of Cartesian functions: 1452
    Spherical Harmonics?: true
    Max angular momentum: 3

  Minimum eigenvalue in the overlap matrix is 3.0495888289E-04.
  Reciprocal condition number of the overlap matrix is 4.2932354645E-05.
    Using symmetric orthogonalization.

  ==> Pre-Iterations <==

  SCF Guess: Superposition of Atomic Densities via on-the-fly atomic UHF (no occupation information).

   -------------------------
    Irrep   Nso     Nmo    
   -------------------------
     A        256     256 
   -------------------------
    Total     256     256
   -------------------------

  ==> Iterations <==

                           Total Energy        Delta E     RMS |[F,P]|

   @DF-RHF iter SAD:  -922.26176261043236   -9.22262e+02   0.00000e+00 
   @DF-RHF iter   1:  -921.44675604284350    8.15007e-01   2.25820e-03 DIIS
   @DF-RHF iter   2:  -921.65705915265835   -2.10303e-01   9.84643e-04 DIIS
   @DF-RHF iter   3:  -921.69103129193093   -3.39721e-02   2.91185e-04 DIIS
   @DF-RHF iter   4:  -921.69513895640364   -4.10766e-03   9.96247e-05 DIIS
   @DF-RHF iter   5:  -921.69554370415517   -4.04748e-04   2.86056e-05 DIIS
   @DF-RHF iter   6:  -921.69559026690433   -4.65627e-05   8.55827e-06 DIIS
   @DF-RHF iter   7:  -921.69559631346112   -6.04656e-06   3.20690e-06 DIIS
   @DF-RHF iter   8:  -921.69559737065117   -1.05719e-06   1.56216e-06 DIIS
   @DF-RHF iter   9:  -921.69559765599922   -2.85348e-07   6.40113e-07 DIIS
   @DF-RHF iter  10:  -921.69559771851641   -6.25172e-08   3.07144e-07 DIIS
   @DF-RHF iter  11:  -921.69559773655828   -1.80419e-08   1.36919e-07 DIIS
   @DF-RHF iter  12:  -921.69559773959747   -3.03919e-09   3.96109e-08 DIIS
   @DF-RHF iter  13:  -921.69559773981553   -2.18051e-10   1.32142e-08 DIIS
   @DF-RHF iter  14:  -921.69559773983485   -1.93268e-11   4.32035e-09 DIIS
   @DF-RHF iter  15:  -921.69559773983599   -1.13687e-12   1.40692e-09 DIIS
   @DF-RHF iter  16:  -921.69559773983633   -3.41061e-13   5.34049e-10 DIIS
   @DF-RHF iter  17:  -921.69559773983428    2.04636e-12   2.11887e-10 DIIS
   @DF-RHF iter  18:  -921.69559773983667   -2.38742e-12   8.03117e-11 DIIS
  Energy and wave function converged.


  ==> Post-Iterations <==

    Orbital Energies [Eh]
    ---------------------

    Doubly Occupied:                                                      

       1A   -104.933788     2A    -11.497808     3A    -11.469856  
       4A    -11.446773     5A    -11.424992     6A    -11.399621  
       7A    -11.395995     8A    -11.395798     9A    -11.387717  
      10A    -11.383976    11A    -11.381311    12A    -11.377605  
      13A    -11.377011    14A    -10.660368    15A     -8.127999  
      16A     -8.124371    17A     -8.124313    18A     -1.413299  
      19A     -1.302201    20A     -1.256843    21A     -1.236607  
      22A     -1.165008    23A     -1.150470    24A     -1.149327  
      25A     -1.100154    26A     -0.974600    27A     -0.969738  
      28A     -0.964283    29A     -0.920244    30A     -0.883656  
      31A     -0.860346    32A     -0.801544    33A     -0.782252  
      34A     -0.773823    35A     -0.762109    36A     -0.754907  
      37A     -0.725675    38A     -0.717542    39A     -0.682187  
      40A     -0.674414    41A     -0.656591    42A     -0.647671  
      43A     -0.644257    44A     -0.636362    45A     -0.626668  
      46A     -0.623535    47A     -0.594407    48A     -0.568449  
      49A     -0.551153    50A     -0.469311    51A     -0.447762  

    Virtual:                                                              

      52A     -0.076019    53A     -0.030662    54A     -0.010695  
      55A     -0.005998    56A      0.020551    57A      0.044373  
      58A      0.065852    59A      0.071102    60A      0.087109  
      61A      0.094873    62A      0.109871    63A      0.114892  
      64A      0.120281    65A      0.135661    66A      0.136556  
      67A      0.147247    68A      0.152834    69A      0.169871  
      70A      0.183969    71A      0.205330    72A      0.212409  
      73A      0.220214    74A      0.254442    75A      0.259135  
      76A      0.293499    77A      0.312412    78A      0.321659  
      79A      0.334116    80A      0.344914    81A      0.358377  
      82A      0.401465    83A      0.430602    84A      0.452963  
      85A      0.464788    86A      0.483731    87A      0.496687  
      88A      0.506926    89A      0.514152    90A      0.519885  
      91A      0.527511    92A      0.535002    93A      0.557549  
      94A      0.565408    95A      0.572155    96A      0.582654  
      97A      0.590228    98A      0.599594    99A      0.607874  
     100A      0.610012   101A      0.618302   102A      0.625668  
     103A      0.645530   104A      0.649700   105A      0.660247  
     106A      0.669578   107A      0.675608   108A      0.683245  
     109A      0.689540   110A      0.695633   111A      0.701721  
     112A      0.706217   113A      0.710353   114A      0.722759  
     115A      0.733231   116A      0.744257   117A      0.747924  
     118A      0.751205   119A      0.763179   120A      0.770429  
     121A      0.785761   122A      0.789417   123A      0.791327  
     124A      0.794600   125A      0.799928   126A      0.822596  
     127A      0.831550   128A      0.856926   129A      0.873483  
     130A      0.878964   131A      0.886608   132A      0.899757  
     133A      0.953101   134A      0.977477   135A      0.986166  
     136A      1.008658   137A      1.016088   138A      1.027423  
     139A      1.039195   140A      1.065284   141A      1.083528  
     142A      1.096715   143A      1.105335   144A      1.106885  
     145A      1.137335   146A      1.147078   147A      1.176995  
     148A      1.179913   149A      1.197609   150A      1.216509  
     151A      1.227919   152A      1.257869   153A      1.266800  
     154A      1.301033   155A      1.305712   156A      1.324025  
     157A      1.355063   158A      1.360965   159A      1.369436  
     160A      1.391508   161A      1.427712   162A      1.443475  
     163A      1.457776   164A      1.479862   165A      1.500161  
     166A      1.526173   167A      1.545073   168A      1.561162  
     169A      1.580263   170A      1.587790   171A      1.605530  
     172A      1.624092   173A      1.629430   174A      1.651775  
     175A      1.660991   176A      1.685174   177A      1.687674  
     178A      1.695510   179A      1.703678   180A      1.734137  
     181A      1.738875   182A      1.752905   183A      1.767521  
     184A      1.775832   185A      1.779353   186A      1.789103  
     187A      1.795924   188A      1.800569   189A      1.812770  
     190A      1.820324   191A      1.835265   192A      1.839488  
     193A      1.851300   194A      1.858595   195A      1.871836  
     196A      1.884795   197A      1.890853   198A      1.896754  
     199A      1.923974   200A      1.929105   201A      1.934550  
     202A      1.945272   203A      1.953401   204A      1.976699  
     205A      1.983129   206A      2.003726   207A      2.011482  
     208A      2.030146   209A      2.051455   210A      2.079407  
     211A      2.080282   212A      2.098262   213A      2.107720  
     214A      2.118835   215A      2.121439   216A      2.144913  
     217A      2.162152   218A      2.183765   219A      2.199862  
     220A      2.227423   221A      2.233658   222A      2.257584  
     223A      2.271557   224A      2.282823   225A      2.292452  
     226A      2.304980   227A      2.311395   228A      2.333612  
     229A      2.372504   230A      2.407884   231A      2.433927  
     232A      2.447079   233A      2.508413   234A      2.527358  
     235A      2.548546   236A      2.563109   237A      2.590269  
     238A      2.607714   239A      2.615587   240A      2.624792  
     241A      2.637259   242A      2.642051   243A      2.707271  
     244A      2.713299   245A      2.750982   246A      2.790557  
     247A      2.817850   248A      2.830406   249A      2.874178  
     250A      2.889193   251A      2.916931   252A      2.972191  
     253A      3.046420   254A      3.106447   255A      3.115172  
     256A      3.626805  

    Final Occupation by Irrep:
              A 
    DOCC [    51 ]

  @DF-RHF Final Energy:  -921.69559773983667

   => Energetics <=

    Nuclear Repulsion Energy =            844.8490230409000787
    One-Electron Energy =               -2922.2958511580523009
    Two-Electron Energy =                1155.7512303773155509
    Total Energy =                       -921.6955977398365576

Computation Completed


Properties will be evaluated at   0.000000,   0.000000,   0.000000 [a0]

Properties computed using the SCF density matrix

  Nuclear Dipole Moment: [e a0]
     X:    26.9127      Y:     7.2089      Z:    -7.8992

  Electronic Dipole Moment: [e a0]
     X:   -23.0032      Y:    -5.7150      Z:     5.0231

  Dipole Moment: [e a0]
     X:     3.9095      Y:     1.4939      Z:    -2.8761     Total:     5.0782

  Dipole Moment: [D]
     X:     9.9370      Y:     3.7971      Z:    -7.3103     Total:    12.9075


*** tstop() called on skylm005.palmetto.clemson.edu at Thu Feb 17 23:52:52 2022
Module time:
	user time   =      12.72 seconds =       0.21 minutes
	system time =       0.82 seconds =       0.01 minutes
	total time  =         17 seconds =       0.28 minutes
Total time:
	user time   =      12.72 seconds =       0.21 minutes
	system time =       0.82 seconds =       0.01 minutes
	total time  =         17 seconds =       0.28 minutes
 MINTS: Wrapper to libmints.
   by Justin Turney

   Calculation information:
      Number of threads:                 1
      Number of atoms:                  27
      Number of AO shells:             122
      Number of SO shells:             122
      Number of primitives:            384
      Number of atomic orbitals:       269
      Number of basis functions:       256

      Number of irreps:                  1
      Integral cutoff                 1.00e-12
      Number of functions per irrep: [ 256 ]

 OEINTS: Overlap, kinetic, potential, dipole, and quadrupole integrals
         stored in file 35.

      Computing two-electron integrals...done
      Computed 340398241 non-zero two-electron integrals.
        Stored in file 33.


*** tstart() called on skylm005.palmetto.clemson.edu
*** at Thu Feb 17 23:59:52 2022


	Wfn Parameters:
	--------------------
	Wavefunction         = CCSD
	Number of irreps     = 1
	Number of MOs        = 256
	Number of active MOs = 256
	AO-Basis             = NONE
	Semicanonical        = false
	Reference            = RHF
	Print Level          = 1

	IRREP	# MOs	# FZDC	# DOCC	# SOCC	# VIRT	# FZVR
	-----	-----	------	------	------	------	------
	 A	   256	    0	    51	    0	    205	    0
	Transforming integrals...
	IWL integrals will be deleted.
	(OO|OO)...
	Presorting SO-basis two-electron integrals.
	Sorting File: SO Ints (nn|nn) nbuckets = 1
	Constructing frozen core operators
	Starting first half-transformation.
	Sorting half-transformed integrals.
	First half integral transformation complete.
	Starting second half-transformation.
	Two-electron integral transformation complete.
	(OO|OV)...
	Starting second half-transformation.
	Two-electron integral transformation complete.
	(OO|VV)...
	Starting second half-transformation.
	Two-electron integral transformation complete.
	(OV|OO)...
	Starting first half-transformation.
	Sorting half-transformed integrals.
	First half integral transformation complete.
	Starting second half-transformation.
	Two-electron integral transformation complete.
	(OV|OV)...
	Starting second half-transformation.
	Two-electron integral transformation complete.
	(OV|VV)...
	Starting second half-transformation.
	Two-electron integral transformation complete.
	(VV|OO)...
	Starting first half-transformation.
	Sorting half-transformed integrals.
	First half integral transformation complete.
	Starting second half-transformation.
	Two-electron integral transformation complete.
	(VV|OV)...
	Starting second half-transformation.
	Two-electron integral transformation complete.
	(VV|VV)...
	Starting second half-transformation.
	Two-electron integral transformation complete.
	Frozen core energy     =      0.00000000000000

	Size of irrep 0 of <ab|cd> integrals:   1766.101 (MW) /  14128.805 (MB)
	Total:                                  1766.101 (MW) /  14128.805 (MB)

	Size of irrep 0 of <ia|bc> integrals:    439.371 (MW) /   3514.971 (MB)
	Total:                                   439.371 (MW) /   3514.971 (MB)

	Size of irrep 0 of tijab amplitudes:     109.307 (MW) /    874.456 (MB)
	Total:                                   109.307 (MW) /    874.456 (MB)

	Nuclear Rep. energy          =    844.84902304090008
	SCF energy                   =   -921.69559773983667
	One-electron energy          =  -2922.29585111941697
	Two-electron energy          =   1155.75047826587274
	Reference energy             =   -921.69634981264414

*** tstop() called on skylm005.palmetto.clemson.edu at Fri Feb 18 00:12:17 2022
Module time:
	user time   =     194.59 seconds =       3.24 minutes
	system time =     110.67 seconds =       1.84 minutes
	total time  =        745 seconds =      12.42 minutes
Total time:
	user time   =     407.21 seconds =       6.79 minutes
	system time =     125.47 seconds =       2.09 minutes
	total time  =       1182 seconds =      19.70 minutes
            **************************
            *                        *
            *        CCENERGY        *
            *                        *
            **************************

    Nuclear Rep. energy (wfn)     =  844.849023040900079
    SCF energy          (wfn)     = -921.695597739836671
    Reference energy    (file100) = -921.696349812644144

    Input parameters:
    -----------------
    Wave function   =     CCSD
    Reference wfn   =     RHF
    Brueckner       =     No
    Memory (Mbytes) =     62000.0
    Maxiter         =     50
    R_Convergence   =     1.0e-07
    E_Convergence   =     1.0e-08
    Restart         =     Yes
    DIIS            =     Yes
    AO Basis        =     NONE
    ABCD            =     NEW
    Cache Level     =     2
    Cache Type      =     LOW
    Print Level     =     1
    Num. of threads =     1
    # Amps to Print =     10
    Print MP2 Amps? =     No
    Analyze T2 Amps =     No
    Print Pair Ener =     No
    Local CC        =     No
    SCS-MP2         =     False
    SCSN-MP2        =     False
    SCS-CCSD        =     False

MP2 correlation energy -1.7965466366007721
                Solving CC Amplitude Equations
                ------------------------------
  Iter             Energy              RMS        T1Diag      D1Diag    New D1Diag    D2Diag
  ----     ---------------------    ---------   ----------  ----------  ----------   --------
     0        -1.796546636600772    0.000e+00    0.000000    0.000000    0.000000    0.178339
     1        -1.824551817533103    1.290e-01    0.006691    0.024036    0.024036    0.167412
     2        -1.872999002260397    4.447e-02    0.006833    0.023445    0.023445    0.181230
     3        -1.883581373026521    1.813e-02    0.007793    0.027920    0.027920    0.185324
     4        -1.883607838571305    5.342e-03    0.007890    0.028178    0.028178    0.187181
     5        -1.883782857833666    2.419e-03    0.007948    0.028835    0.028835    0.188201
     6        -1.883830246256143    6.678e-04    0.007954    0.028907    0.028907    0.188449
     7        -1.883808529298084    2.641e-04    0.007955    0.028975    0.028975    0.188510
     8        -1.883803775736576    8.389e-05    0.007956    0.028995    0.028995    0.188525
     9        -1.883806545628806    3.896e-05    0.007956    0.029007    0.029007    0.188528
    10        -1.883805097563092    1.871e-05    0.007957    0.029016    0.029016    0.188527
    11        -1.883804542489147    8.241e-06    0.007957    0.029020    0.029020    0.188527
    12        -1.883804392426893    4.091e-06    0.007957    0.029023    0.029023    0.188527
    13        -1.883804237921988    1.475e-06    0.007957    0.029024    0.029024    0.188526
    14        -1.883804185452863    6.408e-07    0.007957    0.029024    0.029024    0.188526
    15        -1.883804170399475    2.674e-07    0.007957    0.029024    0.029024    0.188526
    16        -1.883804161471350    1.241e-07    0.007957    0.029024    0.029024    0.188526
    17        -1.883804159541990    5.847e-08    0.007957    0.029024    0.029024    0.188526

    Iterations converged.


    Largest TIA Amplitudes:
             47   2         0.0145692390
             50  80         0.0120501700
             50   2        -0.0112576980
             49  46         0.0097797899
             49  50        -0.0093041483
             49  48         0.0085623702
             49  45        -0.0080788910
             49  92         0.0078850639
             49  91        -0.0078105670
             50  43        -0.0076558108

    Largest TIjAb Amplitudes:
     49  49   3   3        -0.0756521519
     50  50   2   2        -0.0656282335
     49  50   2   3         0.0405029579
     50  49   3   2         0.0405029579
     49  49   2   2        -0.0327607100
     50  50   3   3        -0.0295741684
     48  48  79  79        -0.0244845618
     49  49   1   3         0.0194046149
     49  49   3   1         0.0194046149
     47  50   2   2        -0.0150292957

    SCF energy       (wfn)                    = -921.695597739836671
    Reference energy (file100)                = -921.696349812644144

    Opposite-spin MP2 correlation energy      =   -1.322953363920017
    Same-spin MP2 correlation energy          =   -0.473593272680755
    Singles MP2 correlation energy            =   -0.000000000000000
    MP2 correlation energy                    =   -1.796546636600772
      * MP2 total energy                      = -923.492896449244881

    Opposite-spin CCSD correlation energy     =   -1.456691792786887
    Same-spin CCSD correlation energy         =   -0.427112366755102
    Singles CCSD correlation energy           =    0.000000000000000
    CCSD correlation energy                   =   -1.883804159541990
      * CCSD total energy                     = -923.580153972186167


			**************************
			*                        *
			*         CCHBAR         *
			*                        *
			**************************


			**************************
			*        CCLAMBDA        *
			**************************


	Nuclear Rep. energy (wfn)     =  844.849023040900079
	Reference           (wfn)     =                    0
	SCF energy          (wfn)     = -921.695597739836671
	Reference energy    (CC_INFO) = -921.696349812644144
	CCSD energy         (CC_INFO) =   -1.883804159541990
	Total CCSD energy   (CC_INFO) = -923.580153972186167

	Input parameters:
	-----------------
	Maxiter           =     50
	Convergence       = 1.0e-07
	Restart           =     No
	Cache Level       =     2
	Model III         =     No
	DIIS              =     Yes
	AO Basis          =     No
	ABCD              =     NEW
	Local CC          =     No
	Parameters for left-handed eigenvectors:
	    Irr   Root  Ground-State?    EOM energy        R0
	  1   0     0        Yes       0.0000000000   1.0000000000
	Labels for eigenvector 1:
	LIA 0 -1, Lia 0 -1, LIJAB 0 -1, Lijab 0 -1, LIjAb 0 -1, 2LIjAb - LIjbA 0 -1
	Symmetry of left-hand state: A
	Symmetry of left-hand eigenvector: A

	          Solving Lambda Equations
	          ------------------------
	Iter     PseudoEnergy or Norm         RMS  
	----     ---------------------     --------
	   0        -1.883885763684273    0.000e+00
	   1        -1.827676765193145    3.266e-02
	   2        -1.822839405020420    6.959e-03
	   3        -1.821403080202678    2.544e-03
	   4        -1.821299968787391    8.746e-04
	   5        -1.821351338381044    4.091e-04
	   6        -1.821341622302281    1.480e-04
	   7        -1.821339381831787    6.580e-05
	   8        -1.821341468070742    2.483e-05
	   9        -1.821341382735999    1.103e-05
	  10        -1.821341550045632    4.194e-06
	  11        -1.821341511769781    1.863e-06
	  12        -1.821341432676151    7.466e-07
	  13        -1.821341419137848    3.219e-07
	  14        -1.821341414428870    1.559e-07
	  15        -1.821341412693512    6.765e-08

	Largest LIA Amplitudes:
	         47   2         0.0102620786
	         50  80         0.0094132687
	         50   2        -0.0090411924
	         49  46         0.0077607736
	         49  50        -0.0073296824
	         49  48         0.0067878461
	         49  45        -0.0063785529
	         49  92         0.0063142339
	         49  91        -0.0062362524
	         50  43        -0.0056609779

	Largest LIjAb Amplitudes:
	 49  49   3   3        -0.0712713805
	 50  50   2   2        -0.0615095009
	 49  50   2   3         0.0383144574
	 50  49   3   2         0.0383144574
	 49  49   2   2        -0.0291480432
	 50  50   3   3        -0.0265068981
	 48  48  79  79        -0.0239304874
	 49  49   1   3         0.0183830216
	 49  49   3   1         0.0183830216
	 47  50   2   2        -0.0143633334

	Iterations converged.

	Overlap <L|e^T> =        0.28259151225

			**************************
			*                        *
			*        CCDENSITY       *
			*                        *
			**************************


	Input parameters:
	-----------------
	Wave function    =   CCSD
	Reference wfn    =   RHF
	Dertype          = 1
	Tolerance        = 1.0e-14
	Cache Level      = 2
	AO Basis         = No
	OPDM Only        = No
	Relax OPDM       = Yes
	Compute Xi       = No
	Use Zeta         = No
	Xi connected     = Yes
	Compute NO       = No

	Nuclear Rep. energy (wfn)     =  844.849023040900079
	SCF energy          (wfn)     = -921.695597739836671
	Reference energy    (file100) = -921.696349812644144
	CCSD energy         (CC_INFO) =   -1.883804159541990
	Total CCSD energy   (CC_INFO) = -923.580153972186167
	Number of States = 1

	Ground?  State     EOM Energy       R0
	  Yes     0  A    0.0000000000   1.00000000

	Virial Theorem Data:
	--------------------
	Kinetic energy (ref)   =  921.221640454259386
	Kinetic energy (corr)  =    1.656300704003647
	Kinetic energy (total) =  922.877941158263070
	-V/T (ref)             =    2.000515304176040
	-V/T (corr)            =    2.137356371936820
	-V/T (total)           =    2.000760894569700
    Molecular point group: c1
    Full point group: C1

    Geometry (in Bohr), charge = 1, multiplicity = 1:

       Center              X                  Y                   Z       
    ------------   -----------------  -----------------  -----------------
         C           -1.784424063438     1.432244308560    -1.636100519621
         C            0.380298675195     0.429531059953    -0.459831044199
         C            0.062020497239    -1.286994107202     1.554800308973
         C           -2.361112952473    -1.987642193560     2.369886430036
         C           -4.509002122834    -0.980352028277     1.175660776970
         C           -4.214167052740     0.730536085846    -0.830650112072
         C            2.977474845787     1.210405579241    -1.243024257443
         C            4.542357050278     2.876964497912     0.558895743596
         C            6.929940972118     1.308312289801     1.128438410821
         C            7.457926672119    -0.155853181383    -1.336306808174
         C            4.836126314837    -0.657297677951    -2.440184655182
         C            3.648573284720     1.420582808640    -4.016031050653
         H            4.223630172780    -2.597507836851    -2.807709930417
         H            8.498855852162    -1.924997772501    -0.989613873745
         H            8.608259656469     0.992452126835    -2.646675028910
         H            6.485728720985    -0.061287506612     2.639656172802
         H            8.543746296272     2.459952964629     1.773192177840
         H            3.462437151089     3.331685516029     2.279175796562
         H            5.041711509752     4.683289450549    -0.362300389138
         H           -1.554904764748     2.777551675630    -3.190974734552
         H           -5.878573573355     1.523576661930    -1.767727503164
         CL          -7.517221237154    -1.856047335362     2.173422943129
         H           -2.576772277363    -3.329651988541     3.928645921881
         H            1.736491699198    -2.090904387960     2.469286024235
         H            2.210737367643     0.854819593665    -5.388639291058
         H            4.860484884594     2.992938879958    -4.601487101581
         H            3.247556393363     3.107152037254    -5.135582286146

	Presorting MO-basis TPDM.
	Sorting File: MO TPDM (AA|AA) nbuckets = 1
	Starting first half-transformation.
	Sorting half-transformed TPDM.
	First half integral transformation complete.


  -Total gradient:
     Atom            X                  Y                   Z
    ------   -----------------  -----------------  -----------------
       1       -0.003553961010     0.003181220846    -0.003208842343
       2        0.012121302514     0.001594449364     0.004727720404
       3       -0.001375711108    -0.001272413467     0.002556459700
       4       -0.002684052642     0.002019922111    -0.002259764560
       5       -0.002843078386    -0.001729260146     0.001849957502
       6        0.002939400989    -0.002617242596     0.002994537332
       7       -0.007177790938     0.009644688521    -0.006965467042
       8       -0.004760737737    -0.004315576759    -0.000006333683
       9        0.000628422968     0.000577693954    -0.001916367631
      10       -0.009764115385    -0.002837178299     0.000346283063
      11       -0.009168441746     0.002880248140    -0.027003028342
      12        0.050244091169     0.042388998159    -0.020951355653
      13        0.001137235607    -0.002450538362     0.011233970683
      14        0.001520327373     0.000347137454     0.002255203645
      15       -0.001329242017     0.002012457613     0.000375722413
      16       -0.000393375237    -0.000133642318    -0.000798661267
      17        0.000678423025     0.000903315416     0.001011525656
      18        0.001079121655    -0.000348910847     0.002550390565
      19       -0.000225137947    -0.002725535551    -0.000883646848
      20        0.003581142202    -0.001523140248     0.000704927424
      21       -0.000232401649     0.000694169699    -0.000842148955
      22       -0.002486751290    -0.000774482347     0.000839132039
      23        0.000398477546    -0.000658892197     0.000688947436
      24        0.001241885886     0.001032659062    -0.001823906810
      25        0.005361247654     0.019140571406     0.009712493556
      26       -0.068458620666    -0.018177257926     0.002710034431
      27        0.033522339236    -0.046853460670     0.022102217246

hessian() using ref_gradient to assess stationary point.

  Based on options and gradient (rms=1.39E-02), recommend projecting translations and not projecting rotations.
hessian() will perform frequency computation by finite difference of analytic gradients.

         ----------------------------------------------------------
                                   FINDIF
                     R. A. King and Jonathon Misiewicz
         ---------------------------------------------------------

  Using finite-differences of gradients to determine vibrational frequencies and 
  normal modes. Resulting frequencies are only valid at stationary points.
    Generating geometries for use with 3-point formula.
    Displacement size will be 5.00e-03.
    Number of atoms is 27.
    Number of irreps is 1.
    Number of SALCs is 78.
    Translations projected? 1. Rotations projected? 0.
    Index of SALCs per irrep:
     1 :  0  1  2  3  4  5  6  7  8  9  10  11  12  13  14  15  16  17  18  19  20  21  22  23  24  25  26  27  28  29  30  31  32  33  34  35  36  37  38  39  40  41  42  43  44  45  46  47  48  49  50  51  52  53  54  55  56  57  58  59  60  61  62  63  64  65  66  67  68  69  70  71  72  73  74  75  76  77 
    Number of SALCs per irrep:
     Irrep 1: 78
    Number of geometries (including reference) is 157.
    Number of displacements per irrep:
      Irrep 1: 156

  //>>>>>>>>>>>>>>>>>>>>>>>>>>>>>>>>>>>//
  //   Loading displacement 1 of 157   //
  //<<<<<<<<<<<<<<<<<<<<<<<<<<<<<<<<<<<//

Scratch directory: /scratch1/maxbuskirk/
gradient() will perform analytic gradient computation.

*** tstart() called on skylm005.palmetto.clemson.edu
*** at Fri Feb 18 06:47:22 2022

   => Loading Basis Set <=

    Name: CC-PVDZ
    Role: ORBITAL
    Keyword: BASIS
    atoms 1-12         entry C          line   138 file /home/maxbuskirk/.conda/envs/psifour/share/psi4/basis/cc-pvdz.gbs 
    atoms 13-21, 23-27 entry H          line    22 file /home/maxbuskirk/.conda/envs/psifour/share/psi4/basis/cc-pvdz.gbs 
    atoms 22           entry CL         line   658 file /home/maxbuskirk/.conda/envs/psifour/share/psi4/basis/cc-pvdz.gbs 


         ---------------------------------------------------------
                                   SCF
               by Justin Turney, Rob Parrish, Andy Simmonett
                          and Daniel G. A. Smith
                              RHF Reference
                        1 Threads,  59127 MiB Core
         ---------------------------------------------------------

  ==> Geometry <==

    Molecular point group: c1
    Full point group: C1

    Geometry (in Bohr), charge = 1, multiplicity = 1:

       Center              X                  Y                   Z               Mass       
    ------------   -----------------  -----------------  -----------------  -----------------
         C           -1.784424063438     1.432244308560    -1.636100519621    12.000000000000
         C            0.380298675195     0.429531059953    -0.459831044199    12.000000000000
         C            0.062020497239    -1.286994107202     1.554800308973    12.000000000000
         C           -2.361112952473    -1.987642193560     2.369886430036    12.000000000000
         C           -4.509002122834    -0.980352028277     1.175660776970    12.000000000000
         C           -4.214167052740     0.730536085846    -0.830650112072    12.000000000000
         C            2.977474845787     1.210405579241    -1.243024257443    12.000000000000
         C            4.542357050278     2.876964497912     0.558895743596    12.000000000000
         C            6.929940972118     1.308312289801     1.128438410821    12.000000000000
         C            7.457926672119    -0.155853181383    -1.336306808174    12.000000000000
         C            4.836126314837    -0.657297677951    -2.440184655182    12.000000000000
         C            3.648573284720     1.420582808640    -4.016031050653    12.000000000000
         H            4.223630172780    -2.597507836851    -2.807709930417     1.007825032230
         H            8.498855852162    -1.924997772501    -0.989613873745     1.007825032230
         H            8.608259656469     0.992452126835    -2.646675028910     1.007825032230
         H            6.485728720985    -0.061287506612     2.639656172802     1.007825032230
         H            8.543746296272     2.459952964629     1.773192177840     1.007825032230
         H            3.462437151089     3.331685516029     2.279175796562     1.007825032230
         H            5.041711509752     4.683289450549    -0.362300389138     1.007825032230
         H           -1.554904764748     2.777551675630    -3.190974734552     1.007825032230
         H           -5.878573573355     1.523576661930    -1.767727503164     1.007825032230
         CL          -7.517221237154    -1.856047335362     2.173422943129    34.968852682000
         H           -2.576772277363    -3.329651988541     3.928645921881     1.007825032230
         H            1.736491699198    -2.090904387960     2.469286024235     1.007825032230
         H            2.210737367643     0.854819593665    -5.388639291058     1.007825032230
         H            4.860484884594     2.992938879958    -4.601487101581     1.007825032230
         H            3.247556393363     3.107152037254    -5.135582286146     1.007825032230

  Running in c1 symmetry.

  Rotational constants: A =      0.07019  B =      0.01064  C =      0.01000 [cm^-1]
  Rotational constants: A =   2104.19112  B =    318.84983  C =    299.85006 [MHz]
  Nuclear repulsion =  844.849023040900079

  Charge       = 1
  Multiplicity = 1
  Electrons    = 102
  Nalpha       = 51
  Nbeta        = 51

  ==> Algorithm <==

  SCF Algorithm Type is DF.
  DIIS enabled.
  MOM disabled.
  Fractional occupation disabled.
  Guess Type is SAD.
  Energy threshold   = 1.00e-10
  Density threshold  = 1.00e-10
  Integral threshold = 1.00e-12

  ==> Primary Basis <==

  Basis Set: CC-PVDZ
    Blend: CC-PVDZ
    Number of shells: 122
    Number of basis functions: 256
    Number of Cartesian functions: 269
    Spherical Harmonics?: true
    Max angular momentum: 2

   => Loading Basis Set <=

    Name: (CC-PVDZ AUX)
    Role: JKFIT
    Keyword: DF_BASIS_SCF
    atoms 1-12         entry C          line   121 file /home/maxbuskirk/.conda/envs/psifour/share/psi4/basis/cc-pvdz-jkfit.gbs 
    atoms 13-21, 23-27 entry H          line    51 file /home/maxbuskirk/.conda/envs/psifour/share/psi4/basis/cc-pvdz-jkfit.gbs 
    atoms 22           entry CL         line   667 file /home/maxbuskirk/.conda/envs/psifour/share/psi4/basis/cc-pvdz-jkfit.gbs 

  ==> Integral Setup <==

  DFHelper Memory: AOs need 0.577 GiB; user supplied 43.306 GiB. Using in-core AOs.

  ==> MemDFJK: Density-Fitted J/K Matrices <==

    J tasked:                   Yes
    K tasked:                   Yes
    wK tasked:                   No
    OpenMP threads:               1
    Memory [MiB]:             44345
    Algorithm:                 Core
    Schwarz Cutoff:           1E-12
    Mask sparsity (%):      10.8765
    Fitting Condition:        1E-10

   => Auxiliary Basis Set <=

  Basis Set: (CC-PVDZ AUX)
    Blend: CC-PVDZ-JKFIT
    Number of shells: 450
    Number of basis functions: 1274
    Number of Cartesian functions: 1452
    Spherical Harmonics?: true
    Max angular momentum: 3

  Minimum eigenvalue in the overlap matrix is 3.0495888289E-04.
  Reciprocal condition number of the overlap matrix is 4.2932354645E-05.
    Using symmetric orthogonalization.

  ==> Pre-Iterations <==

  SCF Guess: Superposition of Atomic Densities via on-the-fly atomic UHF (no occupation information).

   -------------------------
    Irrep   Nso     Nmo    
   -------------------------
     A        256     256 
   -------------------------
    Total     256     256
   -------------------------

  ==> Iterations <==

                           Total Energy        Delta E     RMS |[F,P]|

   @DF-RHF iter SAD:  -922.26176261064268   -9.22262e+02   0.00000e+00 
   @DF-RHF iter   1:  -921.44675604304746    8.15007e-01   2.25820e-03 DIIS
   @DF-RHF iter   2:  -921.65705915285866   -2.10303e-01   9.84643e-04 DIIS
   @DF-RHF iter   3:  -921.69103129213397   -3.39721e-02   2.91185e-04 DIIS
   @DF-RHF iter   4:  -921.69513895660725   -4.10766e-03   9.96247e-05 DIIS
   @DF-RHF iter   5:  -921.69554370435958   -4.04748e-04   2.86056e-05 DIIS
   @DF-RHF iter   6:  -921.69559026710783   -4.65627e-05   8.55827e-06 DIIS
   @DF-RHF iter   7:  -921.69559631366542   -6.04656e-06   3.20690e-06 DIIS
   @DF-RHF iter   8:  -921.69559737085615   -1.05719e-06   1.56216e-06 DIIS
   @DF-RHF iter   9:  -921.69559765620272   -2.85347e-07   6.40113e-07 DIIS
   @DF-RHF iter  10:  -921.69559771872150   -6.25188e-08   3.07144e-07 DIIS
   @DF-RHF iter  11:  -921.69559773676258   -1.80411e-08   1.36919e-07 DIIS
   @DF-RHF iter  12:  -921.69559773980006   -3.03748e-09   3.96109e-08 DIIS
   @DF-RHF iter  13:  -921.69559774002005   -2.19984e-10   1.32142e-08 DIIS
   @DF-RHF iter  14:  -921.69559774003812   -1.80762e-11   4.32035e-09 DIIS
   @DF-RHF iter  15:  -921.69559774003926   -1.13687e-12   1.40692e-09 DIIS
   @DF-RHF iter  16:  -921.69559774004131   -2.04636e-12   5.34050e-10 DIIS
   @DF-RHF iter  17:  -921.69559774003903    2.27374e-12   2.11887e-10 DIIS
   @DF-RHF iter  18:  -921.69559774004074   -1.70530e-12   8.03118e-11 DIIS
  Energy and wave function converged.


  ==> Post-Iterations <==

    Orbital Energies [Eh]
    ---------------------

    Doubly Occupied:                                                      

       1A   -104.933788     2A    -11.497808     3A    -11.469856  
       4A    -11.446773     5A    -11.424992     6A    -11.399621  
       7A    -11.395995     8A    -11.395798     9A    -11.387717  
      10A    -11.383976    11A    -11.381311    12A    -11.377605  
      13A    -11.377011    14A    -10.660368    15A     -8.127999  
      16A     -8.124371    17A     -8.124313    18A     -1.413299  
      19A     -1.302201    20A     -1.256843    21A     -1.236607  
      22A     -1.165008    23A     -1.150470    24A     -1.149327  
      25A     -1.100154    26A     -0.974600    27A     -0.969738  
      28A     -0.964283    29A     -0.920244    30A     -0.883656  
      31A     -0.860346    32A     -0.801544    33A     -0.782252  
      34A     -0.773823    35A     -0.762109    36A     -0.754907  
      37A     -0.725675    38A     -0.717542    39A     -0.682187  
      40A     -0.674414    41A     -0.656591    42A     -0.647671  
      43A     -0.644257    44A     -0.636362    45A     -0.626668  
      46A     -0.623535    47A     -0.594407    48A     -0.568449  
      49A     -0.551153    50A     -0.469311    51A     -0.447762  

    Virtual:                                                              

      52A     -0.076019    53A     -0.030662    54A     -0.010695  
      55A     -0.005998    56A      0.020551    57A      0.044373  
      58A      0.065852    59A      0.071102    60A      0.087109  
      61A      0.094873    62A      0.109871    63A      0.114892  
      64A      0.120281    65A      0.135661    66A      0.136556  
      67A      0.147247    68A      0.152834    69A      0.169871  
      70A      0.183969    71A      0.205330    72A      0.212409  
      73A      0.220214    74A      0.254442    75A      0.259135  
      76A      0.293499    77A      0.312412    78A      0.321659  
      79A      0.334116    80A      0.344914    81A      0.358377  
      82A      0.401465    83A      0.430602    84A      0.452963  
      85A      0.464788    86A      0.483731    87A      0.496687  
      88A      0.506926    89A      0.514152    90A      0.519885  
      91A      0.527511    92A      0.535002    93A      0.557549  
      94A      0.565408    95A      0.572155    96A      0.582654  
      97A      0.590228    98A      0.599594    99A      0.607874  
     100A      0.610012   101A      0.618302   102A      0.625668  
     103A      0.645530   104A      0.649700   105A      0.660247  
     106A      0.669578   107A      0.675608   108A      0.683245  
     109A      0.689540   110A      0.695633   111A      0.701721  
     112A      0.706217   113A      0.710353   114A      0.722759  
     115A      0.733231   116A      0.744257   117A      0.747924  
     118A      0.751205   119A      0.763179   120A      0.770429  
     121A      0.785761   122A      0.789417   123A      0.791327  
     124A      0.794600   125A      0.799928   126A      0.822596  
     127A      0.831550   128A      0.856926   129A      0.873483  
     130A      0.878964   131A      0.886608   132A      0.899757  
     133A      0.953101   134A      0.977477   135A      0.986166  
     136A      1.008658   137A      1.016088   138A      1.027423  
     139A      1.039195   140A      1.065284   141A      1.083528  
     142A      1.096715   143A      1.105335   144A      1.106885  
     145A      1.137335   146A      1.147078   147A      1.176995  
     148A      1.179913   149A      1.197609   150A      1.216509  
     151A      1.227919   152A      1.257869   153A      1.266800  
     154A      1.301033   155A      1.305712   156A      1.324025  
     157A      1.355063   158A      1.360965   159A      1.369436  
     160A      1.391508   161A      1.427712   162A      1.443475  
     163A      1.457776   164A      1.479862   165A      1.500161  
     166A      1.526173   167A      1.545073   168A      1.561162  
     169A      1.580263   170A      1.587790   171A      1.605530  
     172A      1.624092   173A      1.629430   174A      1.651775  
     175A      1.660991   176A      1.685174   177A      1.687674  
     178A      1.695510   179A      1.703678   180A      1.734137  
     181A      1.738875   182A      1.752905   183A      1.767521  
     184A      1.775832   185A      1.779353   186A      1.789103  
     187A      1.795924   188A      1.800569   189A      1.812770  
     190A      1.820324   191A      1.835265   192A      1.839488  
     193A      1.851300   194A      1.858595   195A      1.871836  
     196A      1.884795   197A      1.890853   198A      1.896754  
     199A      1.923974   200A      1.929105   201A      1.934550  
     202A      1.945272   203A      1.953401   204A      1.976699  
     205A      1.983129   206A      2.003726   207A      2.011482  
     208A      2.030146   209A      2.051455   210A      2.079407  
     211A      2.080282   212A      2.098262   213A      2.107720  
     214A      2.118835   215A      2.121439   216A      2.144913  
     217A      2.162152   218A      2.183765   219A      2.199862  
     220A      2.227423   221A      2.233658   222A      2.257584  
     223A      2.271557   224A      2.282823   225A      2.292452  
     226A      2.304980   227A      2.311395   228A      2.333612  
     229A      2.372504   230A      2.407884   231A      2.433927  
     232A      2.447079   233A      2.508413   234A      2.527358  
     235A      2.548546   236A      2.563109   237A      2.590269  
     238A      2.607714   239A      2.615587   240A      2.624792  
     241A      2.637259   242A      2.642051   243A      2.707271  
     244A      2.713299   245A      2.750982   246A      2.790557  
     247A      2.817850   248A      2.830406   249A      2.874178  
     250A      2.889193   251A      2.916931   252A      2.972191  
     253A      3.046420   254A      3.106447   255A      3.115172  
     256A      3.626805  

    Final Occupation by Irrep:
              A 
    DOCC [    51 ]

  @DF-RHF Final Energy:  -921.69559774004074

   => Energetics <=

    Nuclear Repulsion Energy =            844.8490230409000787
    One-Electron Energy =               -2922.2958511581782659
    Two-Electron Energy =                1155.7512303772373343
    Total Energy =                       -921.6955977400407392

Computation Completed


Properties will be evaluated at   0.000000,   0.000000,   0.000000 [a0]

Properties computed using the SCF density matrix

  Nuclear Dipole Moment: [e a0]
     X:    26.9127      Y:     7.2089      Z:    -7.8992

  Electronic Dipole Moment: [e a0]
     X:   -23.0032      Y:    -5.7150      Z:     5.0231

  Dipole Moment: [e a0]
     X:     3.9095      Y:     1.4939      Z:    -2.8761     Total:     5.0782

  Dipole Moment: [D]
     X:     9.9370      Y:     3.7971      Z:    -7.3103     Total:    12.9075


*** tstop() called on skylm005.palmetto.clemson.edu at Fri Feb 18 06:47:37 2022
Module time:
	user time   =      13.03 seconds =       0.22 minutes
	system time =       0.76 seconds =       0.01 minutes
	total time  =         15 seconds =       0.25 minutes
Total time:
	user time   =   11353.02 seconds =     189.22 minutes
	system time =    2995.92 seconds =      49.93 minutes
	total time  =      24902 seconds =     415.03 minutes
 MINTS: Wrapper to libmints.
   by Justin Turney

   Calculation information:
      Number of threads:                 1
      Number of atoms:                  27
      Number of AO shells:             122
      Number of SO shells:             122
      Number of primitives:            384
      Number of atomic orbitals:       269
      Number of basis functions:       256

      Number of irreps:                  1
      Integral cutoff                 1.00e-12
      Number of functions per irrep: [ 256 ]

 OEINTS: Overlap, kinetic, potential, dipole, and quadrupole integrals
         stored in file 35.

      Computing two-electron integrals...done
      Computed 340398241 non-zero two-electron integrals.
        Stored in file 33.


*** tstart() called on skylm005.palmetto.clemson.edu
*** at Fri Feb 18 06:54:06 2022


	Wfn Parameters:
	--------------------
	Wavefunction         = CCSD
	Number of irreps     = 1
	Number of MOs        = 256
	Number of active MOs = 256
	AO-Basis             = NONE
	Semicanonical        = false
	Reference            = RHF
	Print Level          = 1

	IRREP	# MOs	# FZDC	# DOCC	# SOCC	# VIRT	# FZVR
	-----	-----	------	------	------	------	------
	 A	   256	    0	    51	    0	    205	    0
	Transforming integrals...
	IWL integrals will be deleted.
	(OO|OO)...
	Presorting SO-basis two-electron integrals.
	Sorting File: SO Ints (nn|nn) nbuckets = 1
	Constructing frozen core operators
	Starting first half-transformation.
	Sorting half-transformed integrals.
	First half integral transformation complete.
	Starting second half-transformation.
	Two-electron integral transformation complete.
	(OO|OV)...
	Starting second half-transformation.
	Two-electron integral transformation complete.
	(OO|VV)...
	Starting second half-transformation.
	Two-electron integral transformation complete.
	(OV|OO)...
	Starting first half-transformation.
	Sorting half-transformed integrals.
	First half integral transformation complete.
	Starting second half-transformation.
	Two-electron integral transformation complete.
	(OV|OV)...
	Starting second half-transformation.
	Two-electron integral transformation complete.
	(OV|VV)...
	Starting second half-transformation.
	Two-electron integral transformation complete.
	(VV|OO)...
	Starting first half-transformation.
	Sorting half-transformed integrals.
	First half integral transformation complete.
	Starting second half-transformation.
	Two-electron integral transformation complete.
	(VV|OV)...
	Starting second half-transformation.
	Two-electron integral transformation complete.
	(VV|VV)...
	Starting second half-transformation.
	Two-electron integral transformation complete.
	Frozen core energy     =      0.00000000000000

	Size of irrep 0 of <ab|cd> integrals:   1766.101 (MW) /  14128.805 (MB)
	Total:                                  1766.101 (MW) /  14128.805 (MB)

	Size of irrep 0 of <ia|bc> integrals:    439.371 (MW) /   3514.971 (MB)
	Total:                                   439.371 (MW) /   3514.971 (MB)

	Size of irrep 0 of tijab amplitudes:     109.307 (MW) /    874.456 (MB)
	Total:                                   109.307 (MW) /    874.456 (MB)

	Nuclear Rep. energy          =    844.84902304090008
	SCF energy                   =   -921.69559774004074
	One-electron energy          =  -2922.29585111954293
	Two-electron energy          =   1155.75047826599985
	Reference energy             =   -921.69634981264301

*** tstop() called on skylm005.palmetto.clemson.edu at Fri Feb 18 07:05:39 2022
Module time:
	user time   =     191.15 seconds =       3.19 minutes
	system time =     109.47 seconds =       1.82 minutes
	total time  =        693 seconds =      11.55 minutes
Total time:
	user time   =   11738.06 seconds =     195.63 minutes
	system time =    3119.89 seconds =      52.00 minutes
	total time  =      25984 seconds =     433.07 minutes
            **************************
            *                        *
            *        CCENERGY        *
            *                        *
            **************************

    Nuclear Rep. energy (wfn)     =  844.849023040900079
    SCF energy          (wfn)     = -921.695597740040739
    Reference energy    (file100) = -921.696349812643007

    Input parameters:
    -----------------
    Wave function   =     CCSD
    Reference wfn   =     RHF
    Brueckner       =     No
    Memory (Mbytes) =     62000.0
    Maxiter         =     50
    R_Convergence   =     1.0e-07
    E_Convergence   =     1.0e-08
    Restart         =     Yes
    DIIS            =     Yes
    AO Basis        =     NONE
    ABCD            =     NEW
    Cache Level     =     2
    Cache Type      =     LOW
    Print Level     =     1
    Num. of threads =     1
    # Amps to Print =     10
    Print MP2 Amps? =     No
    Analyze T2 Amps =     No
    Print Pair Ener =     No
    Local CC        =     No
    SCS-MP2         =     False
    SCSN-MP2        =     False
    SCS-CCSD        =     False

MP2 correlation energy -1.7965466366041809
                Solving CC Amplitude Equations
                ------------------------------
  Iter             Energy              RMS        T1Diag      D1Diag    New D1Diag    D2Diag
  ----     ---------------------    ---------   ----------  ----------  ----------   --------
     0        -1.796546636604181    0.000e+00    0.000000    0.000000    0.000000    0.178339
     1        -1.824551817536030    1.290e-01    0.006691    0.024036    0.024036    0.167412
     2        -1.872999002263477    4.447e-02    0.006833    0.023445    0.023445    0.181230
     3        -1.883581373030589    1.813e-02    0.007793    0.027920    0.027920    0.185324
     4        -1.883607838574188    5.342e-03    0.007890    0.028178    0.028178    0.187181
     5        -1.883782857836557    2.419e-03    0.007948    0.028835    0.028835    0.188201
     6        -1.883830246260146    6.678e-04    0.007954    0.028907    0.028907    0.188449
     7        -1.883808529301357    2.641e-04    0.007955    0.028975    0.028975    0.188510
     8        -1.883803775740101    8.389e-05    0.007956    0.028995    0.028995    0.188525
     9        -1.883806545632013    3.896e-05    0.007956    0.029007    0.029007    0.188528
    10        -1.883805097567487    1.871e-05    0.007957    0.029016    0.029016    0.188527
    11        -1.883804542492511    8.241e-06    0.007957    0.029020    0.029020    0.188527
    12        -1.883804392430446    4.091e-06    0.007957    0.029023    0.029023    0.188527
    13        -1.883804237925557    1.475e-06    0.007957    0.029024    0.029024    0.188526
    14        -1.883804185456531    6.408e-07    0.007957    0.029024    0.029024    0.188526
    15        -1.883804170403108    2.674e-07    0.007957    0.029024    0.029024    0.188526
    16        -1.883804161475357    1.241e-07    0.007957    0.029024    0.029024    0.188526
    17        -1.883804159545751    5.847e-08    0.007957    0.029024    0.029024    0.188526

    Iterations converged.


    Largest TIA Amplitudes:
             47   2         0.0145692390
             50  80         0.0120501700
             50   2        -0.0112576980
             49  46         0.0097797899
             49  50        -0.0093041483
             49  48         0.0085623702
             49  45        -0.0080788911
             49  92         0.0078850639
             49  91        -0.0078105670
             50  43        -0.0076558108

    Largest TIjAb Amplitudes:
     49  49   3   3        -0.0756521519
     50  50   2   2        -0.0656282335
     49  50   2   3         0.0405029579
     50  49   3   2         0.0405029579
     49  49   2   2        -0.0327607100
     50  50   3   3        -0.0295741684
     48  48  79  79        -0.0244845618
     49  49   1   3         0.0194046149
     49  49   3   1         0.0194046149
     47  50   2   2        -0.0150292957

    SCF energy       (wfn)                    = -921.695597740040739
    Reference energy (file100)                = -921.696349812643007

    Opposite-spin MP2 correlation energy      =   -1.322953363922361
    Same-spin MP2 correlation energy          =   -0.473593272681820
    Singles MP2 correlation energy            =   -0.000000000000000
    MP2 correlation energy                    =   -1.796546636604181
      * MP2 total energy                      = -923.492896449247155

    Opposite-spin CCSD correlation energy     =   -1.456691792789724
    Same-spin CCSD correlation energy         =   -0.427112366756027
    Singles CCSD correlation energy           =    0.000000000000000
    CCSD correlation energy                   =   -1.883804159545751
      * CCSD total energy                     = -923.580153972188782


			**************************
			*                        *
			*         CCHBAR         *
			*                        *
			**************************


			**************************
			*        CCLAMBDA        *
			**************************


	Nuclear Rep. energy (wfn)     =  844.849023040900079
	Reference           (wfn)     =                    0
	SCF energy          (wfn)     = -921.695597740040739
	Reference energy    (CC_INFO) = -921.696349812643007
	CCSD energy         (CC_INFO) =   -1.883804159545751
	Total CCSD energy   (CC_INFO) = -923.580153972188782

	Input parameters:
	-----------------
	Maxiter           =     50
	Convergence       = 1.0e-07
	Restart           =     No
	Cache Level       =     2
	Model III         =     No
	DIIS              =     Yes
	AO Basis          =     No
	ABCD              =     NEW
	Local CC          =     No
	Parameters for left-handed eigenvectors:
	    Irr   Root  Ground-State?    EOM energy        R0
	  1   0     0        Yes       0.0000000000   1.0000000000
	Labels for eigenvector 1:
	LIA 0 -1, Lia 0 -1, LIJAB 0 -1, Lijab 0 -1, LIjAb 0 -1, 2LIjAb - LIjbA 0 -1
	Symmetry of left-hand state: A
	Symmetry of left-hand eigenvector: A

	          Solving Lambda Equations
	          ------------------------
	Iter     PseudoEnergy or Norm         RMS  
	----     ---------------------     --------
	   0        -1.883885763688274    6.765e-08
	   1        -1.827676765197157    3.266e-02
	   2        -1.822839405023093    6.959e-03
	   3        -1.821403080205825    2.544e-03
	   4        -1.821299968790217    8.746e-04
	   5        -1.821351338384254    4.091e-04
	   6        -1.821341622305680    1.480e-04
	   7        -1.821339381834610    6.580e-05
	   8        -1.821341468073429    2.483e-05
	   9        -1.821341382738885    1.103e-05
	  10        -1.821341550049261    4.194e-06
	  11        -1.821341511773617    1.863e-06
	  12        -1.821341432678727    7.466e-07
	  13        -1.821341419141401    3.219e-07
	  14        -1.821341414432252    1.559e-07
	  15        -1.821341412696931    6.765e-08

	Largest LIA Amplitudes:
	         47   2         0.0102620786
	         50  80         0.0094132687
	         50   2        -0.0090411924
	         49  46         0.0077607735
	         49  50        -0.0073296824
	         49  48         0.0067878461
	         49  45        -0.0063785529
	         49  92         0.0063142340
	         49  91        -0.0062362523
	         50  43        -0.0056609779

	Largest LIjAb Amplitudes:
	 49  49   3   3        -0.0712713805
	 50  50   2   2        -0.0615095009
	 49  50   2   3         0.0383144574
	 50  49   3   2         0.0383144574
	 49  49   2   2        -0.0291480432
	 50  50   3   3        -0.0265068981
	 48  48  79  79        -0.0239304875
	 49  49   1   3         0.0183830216
	 49  49   3   1         0.0183830216
	 47  50   2   2        -0.0143633334

	Iterations converged.

	Overlap <L|e^T> =        0.28259151225

			**************************
			*                        *
			*        CCDENSITY       *
			*                        *
			**************************


	Input parameters:
	-----------------
	Wave function    =   CCSD
	Reference wfn    =   RHF
	Dertype          = 1
	Tolerance        = 1.0e-14
	Cache Level      = 2
	AO Basis         = No
	OPDM Only        = No
	Relax OPDM       = Yes
	Compute Xi       = No
	Use Zeta         = No
	Xi connected     = Yes
	Compute NO       = No

	Nuclear Rep. energy (wfn)     =  844.849023040900079
	SCF energy          (wfn)     = -921.695597740040739
	Reference energy    (file100) = -921.696349812643007
	CCSD energy         (CC_INFO) =   -1.883804159545751
	Total CCSD energy   (CC_INFO) = -923.580153972188782
	Number of States = 1

	Ground?  State     EOM Energy       R0
	  Yes     0  A    0.0000000000   1.00000000

	Virial Theorem Data:
	--------------------
	Kinetic energy (ref)   =  921.221640454134899
	Kinetic energy (corr)  =    1.656300704006048
	Kinetic energy (total) =  922.877941158140970
	-V/T (ref)             =    2.000515304176174
	-V/T (corr)            =    2.137356371937443
	-V/T (total)           =    2.000760894569835
    Molecular point group: c1
    Full point group: C1

    Geometry (in Bohr), charge = 1, multiplicity = 1:

       Center              X                  Y                   Z       
    ------------   -----------------  -----------------  -----------------
         C           -1.784424063438     1.432244308560    -1.636100519621
         C            0.380298675195     0.429531059953    -0.459831044199
         C            0.062020497239    -1.286994107202     1.554800308973
         C           -2.361112952473    -1.987642193560     2.369886430036
         C           -4.509002122834    -0.980352028277     1.175660776970
         C           -4.214167052740     0.730536085846    -0.830650112072
         C            2.977474845787     1.210405579241    -1.243024257443
         C            4.542357050278     2.876964497912     0.558895743596
         C            6.929940972118     1.308312289801     1.128438410821
         C            7.457926672119    -0.155853181383    -1.336306808174
         C            4.836126314837    -0.657297677951    -2.440184655182
         C            3.648573284720     1.420582808640    -4.016031050653
         H            4.223630172780    -2.597507836851    -2.807709930417
         H            8.498855852162    -1.924997772501    -0.989613873745
         H            8.608259656469     0.992452126835    -2.646675028910
         H            6.485728720985    -0.061287506612     2.639656172802
         H            8.543746296272     2.459952964629     1.773192177840
         H            3.462437151089     3.331685516029     2.279175796562
         H            5.041711509752     4.683289450549    -0.362300389138
         H           -1.554904764748     2.777551675630    -3.190974734552
         H           -5.878573573355     1.523576661930    -1.767727503164
         CL          -7.517221237154    -1.856047335362     2.173422943129
         H           -2.576772277363    -3.329651988541     3.928645921881
         H            1.736491699198    -2.090904387960     2.469286024235
         H            2.210737367643     0.854819593665    -5.388639291058
         H            4.860484884594     2.992938879958    -4.601487101581
         H            3.247556393363     3.107152037254    -5.135582286146

	Presorting MO-basis TPDM.
	Sorting File: MO TPDM (AA|AA) nbuckets = 1
	Starting first half-transformation.
	Sorting half-transformed TPDM.
	First half integral transformation complete.


  -Total gradient:
     Atom            X                  Y                   Z
    ------   -----------------  -----------------  -----------------
       1       -0.003553961012     0.003181220848    -0.003208842339
       2        0.012121302501     0.001594449366     0.004727720403
       3       -0.001375711100    -0.001272413465     0.002556459697
       4       -0.002684052646     0.002019922114    -0.002259764561
       5       -0.002843078384    -0.001729260143     0.001849957495
       6        0.002939400991    -0.002617242599     0.002994537332
       7       -0.007177790936     0.009644688521    -0.006965467048
       8       -0.004760737734    -0.004315576755    -0.000006333679
       9        0.000628422966     0.000577693956    -0.001916367633
      10       -0.009764115379    -0.002837178302     0.000346283064
      11       -0.009168441742     0.002880248138    -0.027003028347
      12        0.050244091165     0.042388998161    -0.020951355648
      13        0.001137235606    -0.002450538361     0.011233970685
      14        0.001520327372     0.000347137456     0.002255203645
      15       -0.001329242018     0.002012457613     0.000375722416
      16       -0.000393375236    -0.000133642318    -0.000798661267
      17        0.000678423024     0.000903315416     0.001011525656
      18        0.001079121655    -0.000348910847     0.002550390563
      19       -0.000225137948    -0.002725535554    -0.000883646847
      20        0.003581142203    -0.001523140250     0.000704927424
      21       -0.000232401651     0.000694169700    -0.000842148954
      22       -0.002486751294    -0.000774482347     0.000839132042
      23        0.000398477546    -0.000658892202     0.000688947440
      24        0.001241885889     0.001032659060    -0.001823906808
      25        0.005361247657     0.019140571406     0.009712493555
      26       -0.068458620673    -0.018177257925     0.002710034429
      27        0.033522339241    -0.046853460672     0.022102217247


  //>>>>>>>>>>>>>>>>>>>>>>>>>>>>>>>>>>>//
  //   Loading displacement 2 of 157   //
  //<<<<<<<<<<<<<<<<<<<<<<<<<<<<<<<<<<<//

Scratch directory: /scratch1/maxbuskirk/
gradient() will perform analytic gradient computation.

*** tstart() called on skylm005.palmetto.clemson.edu
*** at Fri Feb 18 13:29:51 2022

   => Loading Basis Set <=

    Name: CC-PVDZ
    Role: ORBITAL
    Keyword: BASIS
    atoms 1-12         entry C          line   138 file /home/maxbuskirk/.conda/envs/psifour/share/psi4/basis/cc-pvdz.gbs 
    atoms 13-21, 23-27 entry H          line    22 file /home/maxbuskirk/.conda/envs/psifour/share/psi4/basis/cc-pvdz.gbs 
    atoms 22           entry CL         line   658 file /home/maxbuskirk/.conda/envs/psifour/share/psi4/basis/cc-pvdz.gbs 


         ---------------------------------------------------------
                                   SCF
               by Justin Turney, Rob Parrish, Andy Simmonett
                          and Daniel G. A. Smith
                              RHF Reference
                        1 Threads,  59127 MiB Core
         ---------------------------------------------------------

  ==> Geometry <==

    Molecular point group: c1
    Full point group: C1

    Geometry (in Bohr), charge = 1, multiplicity = 1:

       Center              X                  Y                   Z               Mass       
    ------------   -----------------  -----------------  -----------------  -----------------
         C           -1.785821866090     1.432244308560    -1.636100519621    12.000000000000
         C            0.380391307069     0.429531059953    -0.459831044199    12.000000000000
         C            0.062113129113    -1.286994107202     1.554800308973    12.000000000000
         C           -2.361020320599    -1.987642193560     2.369886430036    12.000000000000
         C           -4.508909490960    -0.980352028277     1.175660776970    12.000000000000
         C           -4.214074420866     0.730536085846    -0.830650112072    12.000000000000
         C            2.977567477661     1.210405579241    -1.243024257443    12.000000000000
         C            4.542449682152     2.876964497912     0.558895743596    12.000000000000
         C            6.930033603992     1.308312289801     1.128438410821    12.000000000000
         C            7.458019303993    -0.155853181383    -1.336306808174    12.000000000000
         C            4.836218946711    -0.657297677951    -2.440184655182    12.000000000000
         C            3.648665916594     1.420582808640    -4.016031050653    12.000000000000
         H            4.223722804654    -2.597507836851    -2.807709930417     1.007825032230
         H            8.498948484036    -1.924997772501    -0.989613873745     1.007825032230
         H            8.608352288343     0.992452126835    -2.646675028910     1.007825032230
         H            6.485821352859    -0.061287506612     2.639656172802     1.007825032230
         H            8.543838928146     2.459952964629     1.773192177840     1.007825032230
         H            3.462529782963     3.331685516029     2.279175796562     1.007825032230
         H            5.041804141626     4.683289450549    -0.362300389138     1.007825032230
         H           -1.554812132874     2.777551675630    -3.190974734552     1.007825032230
         H           -5.878480941481     1.523576661930    -1.767727503164     1.007825032230
         CL          -7.517128605280    -1.856047335362     2.173422943129    34.968852682000
         H           -2.576679645489    -3.329651988541     3.928645921881     1.007825032230
         H            1.736584331072    -2.090904387960     2.469286024235     1.007825032230
         H            2.210829999517     0.854819593665    -5.388639291058     1.007825032230
         H            4.860577516468     2.992938879958    -4.601487101581     1.007825032230
         H            3.247649025237     3.107152037254    -5.135582286146     1.007825032230

  Running in c1 symmetry.

  Rotational constants: A =      0.07019  B =      0.01064  C =      0.01000 [cm^-1]
  Rotational constants: A =   2104.12308  B =    318.84769  C =    299.84698 [MHz]
  Nuclear repulsion =  844.844368608505192

  Charge       = 1
  Multiplicity = 1
  Electrons    = 102
  Nalpha       = 51
  Nbeta        = 51

  ==> Algorithm <==

  SCF Algorithm Type is DF.
  DIIS enabled.
  MOM disabled.
  Fractional occupation disabled.
  Guess Type is SAD.
  Energy threshold   = 1.00e-10
  Density threshold  = 1.00e-10
  Integral threshold = 1.00e-12

  ==> Primary Basis <==

  Basis Set: CC-PVDZ
    Blend: CC-PVDZ
    Number of shells: 122
    Number of basis functions: 256
    Number of Cartesian functions: 269
    Spherical Harmonics?: true
    Max angular momentum: 2

   => Loading Basis Set <=

    Name: (CC-PVDZ AUX)
    Role: JKFIT
    Keyword: DF_BASIS_SCF
    atoms 1-12         entry C          line   121 file /home/maxbuskirk/.conda/envs/psifour/share/psi4/basis/cc-pvdz-jkfit.gbs 
    atoms 13-21, 23-27 entry H          line    51 file /home/maxbuskirk/.conda/envs/psifour/share/psi4/basis/cc-pvdz-jkfit.gbs 
    atoms 22           entry CL         line   667 file /home/maxbuskirk/.conda/envs/psifour/share/psi4/basis/cc-pvdz-jkfit.gbs 

  ==> Integral Setup <==

  DFHelper Memory: AOs need 0.577 GiB; user supplied 43.306 GiB. Using in-core AOs.

  ==> MemDFJK: Density-Fitted J/K Matrices <==

    J tasked:                   Yes
    K tasked:                   Yes
    wK tasked:                   No
    OpenMP threads:               1
    Memory [MiB]:             44345
    Algorithm:                 Core
    Schwarz Cutoff:           1E-12
    Mask sparsity (%):      10.8826
    Fitting Condition:        1E-10

   => Auxiliary Basis Set <=

  Basis Set: (CC-PVDZ AUX)
    Blend: CC-PVDZ-JKFIT
    Number of shells: 450
    Number of basis functions: 1274
    Number of Cartesian functions: 1452
    Spherical Harmonics?: true
    Max angular momentum: 3

  Minimum eigenvalue in the overlap matrix is 3.0487902406E-04.
  Reciprocal condition number of the overlap matrix is 4.2921526727E-05.
    Using symmetric orthogonalization.

  ==> Pre-Iterations <==

  SCF Guess: Superposition of Atomic Densities via on-the-fly atomic UHF (no occupation information).

   -------------------------
    Irrep   Nso     Nmo    
   -------------------------
     A        256     256 
   -------------------------
    Total     256     256
   -------------------------

  ==> Iterations <==

                           Total Energy        Delta E     RMS |[F,P]|

   @DF-RHF iter SAD:  -922.26178310650471   -9.22262e+02   0.00000e+00 
   @DF-RHF iter   1:  -921.44672386443733    8.15059e-01   2.25836e-03 DIIS
   @DF-RHF iter   2:  -921.65705079029090   -2.10327e-01   9.84716e-04 DIIS
   @DF-RHF iter   3:  -921.69102750346826   -3.39767e-02   2.91086e-04 DIIS
   @DF-RHF iter   4:  -921.69513381819070   -4.10631e-03   9.95523e-05 DIIS
   @DF-RHF iter   5:  -921.69553794739477   -4.04129e-04   2.86056e-05 DIIS
   @DF-RHF iter   6:  -921.69558449112174   -4.65437e-05   8.55846e-06 DIIS
   @DF-RHF iter   7:  -921.69559052900240   -6.03788e-06   3.20430e-06 DIIS
   @DF-RHF iter   8:  -921.69559158246363   -1.05346e-06   1.55964e-06 DIIS
   @DF-RHF iter   9:  -921.69559186633023   -2.83867e-07   6.38930e-07 DIIS
   @DF-RHF iter  10:  -921.69559192848158   -6.21513e-08   3.06653e-07 DIIS
   @DF-RHF iter  11:  -921.69559194646149   -1.79799e-08   1.36865e-07 DIIS
   @DF-RHF iter  12:  -921.69559194950034   -3.03885e-09   3.96227e-08 DIIS
   @DF-RHF iter  13:  -921.69559194972214   -2.21803e-10   1.32125e-08 DIIS
   @DF-RHF iter  14:  -921.69559194973795   -1.58025e-11   4.31369e-09 DIIS
   @DF-RHF iter  15:  -921.69559194974033   -2.38742e-12   1.40065e-09 DIIS
   @DF-RHF iter  16:  -921.69559194973976    5.68434e-13   5.29068e-10 DIIS
   @DF-RHF iter  17:  -921.69559194974113   -1.36424e-12   2.07544e-10 DIIS
   @DF-RHF iter  18:  -921.69559194974045    6.82121e-13   7.73697e-11 DIIS
  Energy and wave function converged.


  ==> Post-Iterations <==

    Orbital Energies [Eh]
    ---------------------

    Doubly Occupied:                                                      

       1A   -104.933795     2A    -11.497811     3A    -11.469861  
       4A    -11.446785     5A    -11.425002     6A    -11.399624  
       7A    -11.396029     8A    -11.395798     9A    -11.387714  
      10A    -11.383987    11A    -11.381312    12A    -11.377540  
      13A    -11.376993    14A    -10.660375    15A     -8.128006  
      16A     -8.124378    17A     -8.124320    18A     -1.413298  
      19A     -1.302207    20A     -1.256843    21A     -1.236568  
[...]
         ---------------------------------------------------------

  ==> Geometry <==

    Molecular point group: c1
    Full point group: C1

    Geometry (in Bohr), charge = 1, multiplicity = 1:

       Center              X                  Y                   Z               Mass       
    ------------   -----------------  -----------------  -----------------  -----------------
         C           -1.784424063438     1.432244308560    -1.636100519621    12.000000000000
         C            0.381693405129     0.429531059953    -0.459831044199    12.000000000000
         C            0.061921509084    -1.286994107202     1.554800308973    12.000000000000
         C           -2.361211940628    -1.987642193560     2.369886430036    12.000000000000
         C           -4.509101110989    -0.980352028277     1.175660776970    12.000000000000
         C           -4.214266040895     0.730536085846    -0.830650112072    12.000000000000
         C            2.977375857632     1.210405579241    -1.243024257443    12.000000000000
         C            4.542258062123     2.876964497912     0.558895743596    12.000000000000
         C            6.929841983963     1.308312289801     1.128438410821    12.000000000000
         C            7.457827683964    -0.155853181383    -1.336306808174    12.000000000000
         C            4.836027326682    -0.657297677951    -2.440184655182    12.000000000000
         C            3.648474296565     1.420582808640    -4.016031050653    12.000000000000
         H            4.223531184625    -2.597507836851    -2.807709930417     1.007825032230
         H            8.498756864007    -1.924997772501    -0.989613873745     1.007825032230
         H            8.608160668314     0.992452126835    -2.646675028910     1.007825032230
         H            6.485629732830    -0.061287506612     2.639656172802     1.007825032230
         H            8.543647308117     2.459952964629     1.773192177840     1.007825032230
         H            3.462338162934     3.331685516029     2.279175796562     1.007825032230
         H            5.041612521597     4.683289450549    -0.362300389138     1.007825032230
         H           -1.555003752903     2.777551675630    -3.190974734552     1.007825032230
         H           -5.878672561510     1.523576661930    -1.767727503164     1.007825032230
         CL          -7.517320225309    -1.856047335362     2.173422943129    34.968852682000
         H           -2.576871265518    -3.329651988541     3.928645921881     1.007825032230
         H            1.736392711043    -2.090904387960     2.469286024235     1.007825032230
         H            2.210638379488     0.854819593665    -5.388639291058     1.007825032230
         H            4.860385896439     2.992938879958    -4.601487101581     1.007825032230
         H            3.247457405208     3.107152037254    -5.135582286146     1.007825032230

  Running in c1 symmetry.

  Rotational constants: A =      0.07019  B =      0.01064  C =      0.01000 [cm^-1]
  Rotational constants: A =   2104.20837  B =    318.84894  C =    299.84957 [MHz]
  Nuclear repulsion =  844.849377627976196

  Charge       = 1
  Multiplicity = 1
  Electrons    = 102
  Nalpha       = 51
  Nbeta        = 51

  ==> Algorithm <==

  SCF Algorithm Type is DF.
  DIIS enabled.
  MOM disabled.
  Fractional occupation disabled.
  Guess Type is SAD.
  Energy threshold   = 1.00e-10
  Density threshold  = 1.00e-10
  Integral threshold = 1.00e-12

  ==> Primary Basis <==

  Basis Set: CC-PVDZ
    Blend: CC-PVDZ
    Number of shells: 122
    Number of basis functions: 256
    Number of Cartesian functions: 269
    Spherical Harmonics?: true
    Max angular momentum: 2

   => Loading Basis Set <=

    Name: (CC-PVDZ AUX)
    Role: JKFIT
    Keyword: DF_BASIS_SCF
    atoms 1-12         entry C          line   121 file /home/maxbuskirk/.conda/envs/psifour/share/psi4/basis/cc-pvdz-jkfit.gbs 
    atoms 13-21, 23-27 entry H          line    51 file /home/maxbuskirk/.conda/envs/psifour/share/psi4/basis/cc-pvdz-jkfit.gbs 
    atoms 22           entry CL         line   667 file /home/maxbuskirk/.conda/envs/psifour/share/psi4/basis/cc-pvdz-jkfit.gbs 

  ==> Integral Setup <==

  DFHelper Memory: AOs need 0.577 GiB; user supplied 43.306 GiB. Using in-core AOs.

  ==> MemDFJK: Density-Fitted J/K Matrices <==

    J tasked:                   Yes
    K tasked:                   Yes
    wK tasked:                   No
    OpenMP threads:               1
    Memory [MiB]:             44345
    Algorithm:                 Core
    Schwarz Cutoff:           1E-12
    Mask sparsity (%):      10.8765
    Fitting Condition:        1E-10

   => Auxiliary Basis Set <=

  Basis Set: (CC-PVDZ AUX)
    Blend: CC-PVDZ-JKFIT
    Number of shells: 450
    Number of basis functions: 1274
    Number of Cartesian functions: 1452
    Spherical Harmonics?: true
    Max angular momentum: 3

  Minimum eigenvalue in the overlap matrix is 3.0497323110E-04.
  Reciprocal condition number of the overlap matrix is 4.2932807760E-05.
    Using symmetric orthogonalization.

  ==> Pre-Iterations <==

  SCF Guess: Superposition of Atomic Densities via on-the-fly atomic UHF (no occupation information).

   -------------------------
    Irrep   Nso     Nmo    
   -------------------------
     A        256     256 
   -------------------------
    Total     256     256
   -------------------------

  ==> Iterations <==

                           Total Energy        Delta E     RMS |[F,P]|

   @DF-RHF iter SAD:  -922.26165503203038   -9.22262e+02   0.00000e+00 
   @DF-RHF iter   1:  -921.44672959136324    8.14925e-01   2.25806e-03 DIIS
   @DF-RHF iter   2:  -921.65702265766708   -2.10293e-01   9.84593e-04 DIIS
   @DF-RHF iter   3:  -921.69099146900533   -3.39688e-02   2.91230e-04 DIIS
   @DF-RHF iter   4:  -921.69509982115915   -4.10835e-03   9.96521e-05 DIIS
   @DF-RHF iter   5:  -921.69550476847166   -4.04947e-04   2.86083e-05 DIIS
   @DF-RHF iter   6:  -921.69555132853247   -4.65601e-05   8.56016e-06 DIIS
   @DF-RHF iter   7:  -921.69555737053133   -6.04200e-06   3.20684e-06 DIIS
   @DF-RHF iter   8:  -921.69555842561238   -1.05508e-06   1.56065e-06 DIIS
   @DF-RHF iter   9:  -921.69555871010641   -2.84494e-07   6.39441e-07 DIIS
   @DF-RHF iter  10:  -921.69555877237758   -6.22712e-08   3.06823e-07 DIIS
   @DF-RHF iter  11:  -921.69555879039638   -1.80188e-08   1.36936e-07 DIIS
   @DF-RHF iter  12:  -921.69555879344000   -3.04362e-09   3.96622e-08 DIIS
   @DF-RHF iter  13:  -921.69555879366067   -2.20666e-10   1.32261e-08 DIIS
   @DF-RHF iter  14:  -921.69555879367579   -1.51203e-11   4.32147e-09 DIIS
   @DF-RHF iter  15:  -921.69555879367886   -3.06954e-12   1.40633e-09 DIIS
   @DF-RHF iter  16:  -921.69555879367772    1.13687e-12   5.33173e-10 DIIS
   @DF-RHF iter  17:  -921.69555879367817   -4.54747e-13   2.10951e-10 DIIS
   @DF-RHF iter  18:  -921.69555879367942   -1.25056e-12   7.96444e-11 DIIS
  Energy and wave function converged.


  ==> Post-Iterations <==

    Orbital Energies [Eh]
    ---------------------

    Doubly Occupied:                                                      

       1A   -104.933795     2A    -11.497827     3A    -11.469863  
       4A    -11.446761     5A    -11.425007     6A    -11.399626  
       7A    -11.396000     8A    -11.395802     9A    -11.387777  
      10A    -11.383995    11A    -11.381315    12A    -11.377608  
      13A    -11.377006    14A    -10.660375    15A     -8.128007  
      16A     -8.124379    17A     -8.124321    18A     -1.413334  
      19A     -1.302156    20A     -1.256863    21A     -1.236585  
      22A     -1.165053    23A     -1.150499    24A     -1.149280  
      25A     -1.100137    26A     -0.974599    27A     -0.969752  
      28A     -0.964342    29A     -0.920245    30A     -0.883645  
      31A     -0.860371    32A     -0.801553    33A     -0.782259  
      34A     -0.773801    35A     -0.762117    36A     -0.754903  
      37A     -0.725712    38A     -0.717480    39A     -0.682221  
      40A     -0.674429    41A     -0.656601    42A     -0.647661  
      43A     -0.644243    44A     -0.636373    45A     -0.626654  
      46A     -0.623602    47A     -0.594381    48A     -0.568405  
      49A     -0.551157    50A     -0.469288    51A     -0.447731  

    Virtual:                                                              

      52A     -0.076028    53A     -0.030669    54A     -0.010750  
      55A     -0.006013    56A      0.020548    57A      0.044369  
      58A      0.065863    59A      0.071098    60A      0.087105  
      61A      0.094872    62A      0.109867    63A      0.114894  
      64A      0.120280    65A      0.135661    66A      0.136558  
      67A      0.147241    68A      0.152833    69A      0.169869  
      70A      0.183959    71A      0.205314    72A      0.212405  
      73A      0.220218    74A      0.254431    75A      0.259139  
      76A      0.293501    77A      0.312418    78A      0.321638  
      79A      0.334123    80A      0.344929    81A      0.358407  
      82A      0.401554    83A      0.430641    84A      0.452941  
      85A      0.464780    86A      0.483717    87A      0.496652  
      88A      0.506940    89A      0.514117    90A      0.519900  
      91A      0.527480    92A      0.535039    93A      0.557587  
      94A      0.565425    95A      0.572162    96A      0.582579  
      97A      0.590227    98A      0.599586    99A      0.607876  
     100A      0.610021   101A      0.618297   102A      0.625663  
     103A      0.645517   104A      0.649700   105A      0.660239  
     106A      0.669582   107A      0.675647   108A      0.683251  
     109A      0.689542   110A      0.695641   111A      0.701726  
     112A      0.706229   113A      0.710361   114A      0.722745  
     115A      0.733275   116A      0.744245   117A      0.747940  
     118A      0.751197   119A      0.763191   120A      0.770427  
     121A      0.785767   122A      0.789425   123A      0.791316  
     124A      0.794562   125A      0.799906   126A      0.822595  
     127A      0.831564   128A      0.856904   129A      0.873480  
     130A      0.878920   131A      0.886602   132A      0.899705  
     133A      0.953159   134A      0.977462   135A      0.986107  
     136A      1.008620   137A      1.016080   138A      1.027425  
     139A      1.039244   140A      1.065239   141A      1.083500  
     142A      1.096700   143A      1.105340   144A      1.106893  
     145A      1.137265   146A      1.147034   147A      1.176960  
     148A      1.179909   149A      1.197607   150A      1.216590  
     151A      1.227959   152A      1.257886   153A      1.266894  
     154A      1.301020   155A      1.305720   156A      1.324026  
     157A      1.355084   158A      1.360969   159A      1.369454  
     160A      1.391532   161A      1.427703   162A      1.443485  
     163A      1.457732   164A      1.479837   165A      1.500162  
     166A      1.526152   167A      1.545050   168A      1.561149  
     169A      1.580256   170A      1.587766   171A      1.605529  
     172A      1.624073   173A      1.629491   174A      1.651699  
     175A      1.661069   176A      1.685144   177A      1.687700  
     178A      1.695522   179A      1.703671   180A      1.734171  
     181A      1.738865   182A      1.752940   183A      1.767542  
     184A      1.775807   185A      1.779405   186A      1.789095  
     187A      1.795912   188A      1.800594   189A      1.812714  
     190A      1.820324   191A      1.835256   192A      1.839479  
     193A      1.851271   194A      1.858564   195A      1.871817  
     196A      1.884782   197A      1.890848   198A      1.896699  
     199A      1.923895   200A      1.929062   201A      1.934510  
     202A      1.945220   203A      1.953357   204A      1.976693  
     205A      1.983107   206A      2.003693   207A      2.011428  
     208A      2.030135   209A      2.051477   210A      2.079399  
     211A      2.080190   212A      2.098199   213A      2.107741  
     214A      2.118847   215A      2.121503   216A      2.144939  
     217A      2.162163   218A      2.183770   219A      2.199913  
     220A      2.227463   221A      2.233697   222A      2.257628  
     223A      2.271610   224A      2.282907   225A      2.292443  
     226A      2.305002   227A      2.311445   228A      2.333643  
     229A      2.372463   230A      2.407870   231A      2.433931  
     232A      2.447125   233A      2.508466   234A      2.527334  
     235A      2.548571   236A      2.563210   237A      2.590173  
     238A      2.607863   239A      2.615607   240A      2.624808  
     241A      2.637288   242A      2.642093   243A      2.707259  
     244A      2.713190   245A      2.750989   246A      2.790508  
     247A      2.817852   248A      2.830440   249A      2.874131  
     250A      2.889115   251A      2.916838   252A      2.972323  
     253A      3.046463   254A      3.106456   255A      3.115029  
     256A      3.626401  

    Final Occupation by Irrep:
              A 
    DOCC [    51 ]

  @DF-RHF Final Energy:  -921.69555879367942

   => Energetics <=

    Nuclear Repulsion Energy =            844.8493776279761960
    One-Electron Energy =               -2922.2960784072247407
    Two-Electron Energy =                1155.7511419855693475
    Total Energy =                       -921.6955587936793108

Computation Completed


Properties will be evaluated at   0.000000,   0.000000,   0.000000 [a0]

Properties computed using the SCF density matrix

  Nuclear Dipole Moment: [e a0]
     X:    26.9121      Y:     7.2089      Z:    -7.8992

  Electronic Dipole Moment: [e a0]
     X:   -23.0025      Y:    -5.7150      Z:     5.0230

  Dipole Moment: [e a0]
     X:     3.9096      Y:     1.4939      Z:    -2.8762     Total:     5.0783

  Dipole Moment: [D]
     X:     9.9372      Y:     3.7972      Z:    -7.3106     Total:    12.9078


*** tstop() called on skylm005.palmetto.clemson.edu at Sun Feb 20 11:11:40 2022
Module time:
	user time   =      12.65 seconds =       0.21 minutes
	system time =       0.80 seconds =       0.01 minutes
	total time  =         14 seconds =       0.23 minutes
Total time:
	user time   =  100593.77 seconds =    1676.56 minutes
	system time =   26784.27 seconds =     446.40 minutes
	total time  =     213545 seconds =    3559.08 minutes
 MINTS: Wrapper to libmints.
   by Justin Turney

   Calculation information:
      Number of threads:                 1
      Number of atoms:                  27
      Number of AO shells:             122
      Number of SO shells:             122
      Number of primitives:            384
      Number of atomic orbitals:       269
      Number of basis functions:       256

      Number of irreps:                  1
      Integral cutoff                 1.00e-12
      Number of functions per irrep: [ 256 ]

 OEINTS: Overlap, kinetic, potential, dipole, and quadrupole integrals
         stored in file 35.

      Computing two-electron integrals...done
      Computed 340400542 non-zero two-electron integrals.
        Stored in file 33.


*** tstart() called on skylm005.palmetto.clemson.edu
*** at Sun Feb 20 11:17:37 2022


	Wfn Parameters:
	--------------------
	Wavefunction         = CCSD
	Number of irreps     = 1
	Number of MOs        = 256
	Number of active MOs = 256
	AO-Basis             = NONE
	Semicanonical        = false
	Reference            = RHF
	Print Level          = 1

	IRREP	# MOs	# FZDC	# DOCC	# SOCC	# VIRT	# FZVR
	-----	-----	------	------	------	------	------
	 A	   256	    0	    51	    0	    205	    0
	Transforming integrals...
	IWL integrals will be deleted.
	(OO|OO)...
	Presorting SO-basis two-electron integrals.
	Sorting File: SO Ints (nn|nn) nbuckets = 1
	Constructing frozen core operators
	Starting first half-transformation.
	Sorting half-transformed integrals.
	First half integral transformation complete.
	Starting second half-transformation.
	Two-electron integral transformation complete.
	(OO|OV)...
	Starting second half-transformation.
	Two-electron integral transformation complete.
	(OO|VV)...
	Starting second half-transformation.
	Two-electron integral transformation complete.
	(OV|OO)...
	Starting first half-transformation.
	Sorting half-transformed integrals.
	First half integral transformation complete.
	Starting second half-transformation.
	Two-electron integral transformation complete.
	(OV|OV)...
	Starting second half-transformation.
	Two-electron integral transformation complete.
	(OV|VV)...
	Starting second half-transformation.
	Two-electron integral transformation complete.
	(VV|OO)...
	Starting first half-transformation.
	Sorting half-transformed integrals.
	First half integral transformation complete.
	Starting second half-transformation.
	Two-electron integral transformation complete.
	(VV|OV)...
	Starting second half-transformation.
	Two-electron integral transformation complete.
	(VV|VV)...
	Starting second half-transformation.
	Two-electron integral transformation complete.
	Frozen core energy     =      0.00000000000000

	Size of irrep 0 of <ab|cd> integrals:   1766.101 (MW) /  14128.805 (MB)
	Total:                                  1766.101 (MW) /  14128.805 (MB)

	Size of irrep 0 of <ia|bc> integrals:    439.371 (MW) /   3514.971 (MB)
	Total:                                   439.371 (MW) /   3514.971 (MB)

	Size of irrep 0 of tijab amplitudes:     109.307 (MW) /    874.456 (MB)
	Total:                                   109.307 (MW) /    874.456 (MB)

	Nuclear Rep. energy          =    844.84937762797620
	SCF energy                   =   -921.69555879367942
	One-electron energy          =  -2922.29607836852801
	Two-electron energy          =   1155.75038985111360
	Reference energy             =   -921.69631088943822

*** tstop() called on skylm005.palmetto.clemson.edu at Sun Feb 20 11:28:16 2022
Module time:
	user time   =     192.36 seconds =       3.21 minutes
	system time =     107.32 seconds =       1.79 minutes
	total time  =        639 seconds =      10.65 minutes
Total time:
	user time   =  100977.90 seconds =    1682.97 minutes
	system time =   26905.14 seconds =     448.42 minutes
	total time  =     214541 seconds =    3575.68 minutes
            **************************
            *                        *
            *        CCENERGY        *
            *                        *
            **************************

    Nuclear Rep. energy (wfn)     =  844.849377627976196
    SCF energy          (wfn)     = -921.695558793679425
    Reference energy    (file100) = -921.696310889438223

    Input parameters:
    -----------------
    Wave function   =     CCSD
    Reference wfn   =     RHF
    Brueckner       =     No
    Memory (Mbytes) =     62000.0
    Maxiter         =     50
    R_Convergence   =     1.0e-07
    E_Convergence   =     1.0e-08
    Restart         =     Yes
    DIIS            =     Yes
    AO Basis        =     NONE
    ABCD            =     NEW
    Cache Level     =     2
    Cache Type      =     LOW
    Print Level     =     1
    Num. of threads =     1
    # Amps to Print =     10
    Print MP2 Amps? =     No
    Analyze T2 Amps =     No
    Print Pair Ener =     No
    Local CC        =     No
    SCS-MP2         =     False
    SCSN-MP2        =     False
    SCS-CCSD        =     False

MP2 correlation energy -1.7965762829355496
                Solving CC Amplitude Equations
                ------------------------------
  Iter             Energy              RMS        T1Diag      D1Diag    New D1Diag    D2Diag
  ----     ---------------------    ---------   ----------  ----------  ----------   --------
     0        -1.796576282935550    0.000e+00    0.000000    0.000000    0.000000    0.178358
     1        -1.824566660053599    1.291e-01    0.006692    0.024041    0.024041    0.167413
     2        -1.873016140390104    4.448e-02    0.006833    0.023447    0.023447    0.181236
