
    -----------------------------------------------------------------------
          Psi4: An Open-Source Ab Initio Electronic Structure Package
                               Psi4 1.4 release

                         Git: Rev {HEAD} 9485035 


    D. G. A. Smith, L. A. Burns, A. C. Simmonett, R. M. Parrish,
    M. C. Schieber, R. Galvelis, P. Kraus, H. Kruse, R. Di Remigio,
    A. Alenaizan, A. M. James, S. Lehtola, J. P. Misiewicz, M. Scheurer,
    R. A. Shaw, J. B. Schriber, Y. Xie, Z. L. Glick, D. A. Sirianni,
    J. S. O'Brien, J. M. Waldrop, A. Kumar, E. G. Hohenstein,
    B. P. Pritchard, B. R. Brooks, H. F. Schaefer III, A. Yu. Sokolov,
    K. Patkowski, A. E. DePrince III, U. Bozkaya, R. A. King,
    F. A. Evangelista, J. M. Turney, T. D. Crawford, C. D. Sherrill,
    J. Chem. Phys. 152(18) 184108 (2020). https://doi.org/10.1063/5.0006002

                            Additional Code Authors
    E. T. Seidl, C. L. Janssen, E. F. Valeev, M. L. Leininger,
    J. F. Gonthier, R. M. Richard, H. R. McAlexander, M. Saitow, X. Wang,
    P. Verma, and M. H. Lechner

             Previous Authors, Complete List of Code Contributors,
                       and Citations for Specific Modules
    https://github.com/psi4/psi4/blob/master/codemeta.json
    https://github.com/psi4/psi4/graphs/contributors
    http://psicode.org/psi4manual/master/introduction.html#citing-psifour

    -----------------------------------------------------------------------


    Psi4 started on: Wednesday, 09 February 2022 07:03AM

    Process ID: 747534
    Host:       skylm007.palmetto.clemson.edu
    PSIDATADIR: /home/maxbuskirk/.conda/envs/psifour/share/psi4
    Memory:     500.0 MiB
    Threads:    1
    
  ==> Input File <==

--------------------------------------------------------------------------
memory 62 GB

molecule mol {
0 1
 C     1.511290    -0.280966    -0.092593
 C    -0.000000     0.000000     0.000000
 C    -0.605968    -1.226439    -0.664954
 C     0.319060    -1.848819    -1.451355
 C     1.653820    -1.134973    -1.365322
 C    -2.027094    -1.583009    -0.507457
 C    -2.438238    -2.928025    -0.366876
 C    -3.794208    -3.253627    -0.211477
 C    -4.766046    -2.240264    -0.182231
 C    -4.369571    -0.897483    -0.299270
 C    -3.014139    -0.572542    -0.452922
 C     0.120138    -2.993149    -2.399423
 H    -2.715369     0.476287    -0.545440
 H    -5.118805    -0.100426    -0.268581
Cl    -6.447141    -2.643405     0.015246
 H    -4.091097    -4.301038    -0.099616
 H    -1.681648    -3.717845    -0.347819
 H     1.812305    -0.886836     0.778541
 H     2.127353     0.631886    -0.103726
 H     2.509857    -1.831293    -1.328975
 H     1.794964    -0.502471    -2.264944
 H    -0.944311    -3.224044    -2.552012
 H     0.568816    -2.749556    -3.378502
 H     0.625600    -3.906462    -2.037287
 H    -0.354002     0.144380     1.034324
 H    -0.267853     0.913064    -0.567140
}

set scf_type df
set basis cc-pVDZ
set reference rhf

mol.update_geometry()
mol.symmetrize(1e-3)

e, wfn = optimize('CCSD', return_wfn=True)
oeprop(wfn, "MULLIKEN_CHARGES")
mol.print_out()
print_variables()
--------------------------------------------------------------------------

  Memory set to  57.742 GiB by Python driver.

Scratch directory: /scratch1/maxbuskirk/
gradient() will perform analytic gradient computation.

*** tstart() called on skylm007.palmetto.clemson.edu
*** at Wed Feb  9 07:03:27 2022

   => Loading Basis Set <=

    Name: CC-PVDZ
    Role: ORBITAL
    Keyword: BASIS
    atoms 1-12         entry C          line   138 file /home/maxbuskirk/.conda/envs/psifour/share/psi4/basis/cc-pvdz.gbs 
    atoms 13-14, 16-26 entry H          line    22 file /home/maxbuskirk/.conda/envs/psifour/share/psi4/basis/cc-pvdz.gbs 
    atoms 15           entry CL         line   658 file /home/maxbuskirk/.conda/envs/psifour/share/psi4/basis/cc-pvdz.gbs 


         ---------------------------------------------------------
                                   SCF
               by Justin Turney, Rob Parrish, Andy Simmonett
                          and Daniel G. A. Smith
                              RHF Reference
                        1 Threads,  59127 MiB Core
         ---------------------------------------------------------

  ==> Geometry <==

    Molecular point group: c1
    Full point group: C1

    Geometry (in Angstrom), charge = 0, multiplicity = 1:

       Center              X                  Y                   Z               Mass       
    ------------   -----------------  -----------------  -----------------  -----------------
         C            3.802945809143     1.484800783811     0.465358189183    12.000000000000
         C            2.291655809143     1.765766783811     0.557951189183    12.000000000000
         C            1.685687809143     0.539327783811    -0.107002810817    12.000000000000
         C            2.610715809143    -0.083052216189    -0.893403810817    12.000000000000
         C            3.945475809143     0.630793783811    -0.807370810817    12.000000000000
         C            0.264561809143     0.182757783811     0.050494189183    12.000000000000
         C           -0.146582190857    -1.162258216189     0.191075189183    12.000000000000
         C           -1.502552190857    -1.487860216189     0.346474189183    12.000000000000
         C           -2.474390190857    -0.474497216189     0.375720189183    12.000000000000
         C           -2.077915190857     0.868283783811     0.258681189183    12.000000000000
         C           -0.722483190857     1.193224783811     0.105029189183    12.000000000000
         C            2.411793809143    -1.227382216189    -1.841471810817    12.000000000000
         H           -0.423713190857     2.242053783811     0.012511189183     1.007825032230
         H           -2.827149190857     1.665340783811     0.289370189183     1.007825032230
         CL          -4.155485190857    -0.877638216189     0.573197189183    34.968852682000
         H           -1.799441190857    -2.535271216189     0.458335189183     1.007825032230
         H            0.610007809143    -1.952078216189     0.210132189183     1.007825032230
         H            4.103960809143     0.878930783811     1.336492189183     1.007825032230
         H            4.419008809143     2.397652783811     0.454225189183     1.007825032230
         H            4.801512809143    -0.065526216189    -0.771023810817     1.007825032230
         H            4.086619809143     1.263295783811    -1.706992810817     1.007825032230
         H            1.347344809143    -1.458277216189    -1.994060810817     1.007825032230
         H            2.860471809143    -0.983789216189    -2.820550810817     1.007825032230
         H            2.917255809143    -2.140695216189    -1.479335810817     1.007825032230
         H            1.937653809143     1.910146783811     1.592275189183     1.007825032230
         H            2.023802809143     2.678830783811    -0.009188810817     1.007825032230

  Running in c1 symmetry.

  Rotational constants: A =      0.06655  B =      0.01045  C =      0.00944 [cm^-1]
  Rotational constants: A =   1994.97437  B =    313.41822  C =    283.15217 [MHz]
  Nuclear repulsion =  812.981678357297255

  Charge       = 0
  Multiplicity = 1
  Electrons    = 102
  Nalpha       = 51
  Nbeta        = 51

  ==> Algorithm <==

  SCF Algorithm Type is DF.
  DIIS enabled.
  MOM disabled.
  Fractional occupation disabled.
  Guess Type is SAD.
  Energy threshold   = 1.00e-10
  Density threshold  = 1.00e-10
  Integral threshold = 1.00e-12

  ==> Primary Basis <==

  Basis Set: CC-PVDZ
    Blend: CC-PVDZ
    Number of shells: 119
    Number of basis functions: 251
    Number of Cartesian functions: 264
    Spherical Harmonics?: true
    Max angular momentum: 2

   => Loading Basis Set <=

    Name: (CC-PVDZ AUX)
    Role: JKFIT
    Keyword: DF_BASIS_SCF
    atoms 1-12         entry C          line   121 file /home/maxbuskirk/.conda/envs/psifour/share/psi4/basis/cc-pvdz-jkfit.gbs 
    atoms 13-14, 16-26 entry H          line    51 file /home/maxbuskirk/.conda/envs/psifour/share/psi4/basis/cc-pvdz-jkfit.gbs 
    atoms 15           entry CL         line   667 file /home/maxbuskirk/.conda/envs/psifour/share/psi4/basis/cc-pvdz-jkfit.gbs 

  ==> Integral Setup <==

  DFHelper Memory: AOs need 0.538 GiB; user supplied 43.306 GiB. Using in-core AOs.

  ==> MemDFJK: Density-Fitted J/K Matrices <==

    J tasked:                   Yes
    K tasked:                   Yes
    wK tasked:                   No
    OpenMP threads:               1
    Memory [MiB]:             44345
    Algorithm:                 Core
    Schwarz Cutoff:           1E-12
    Mask sparsity (%):      12.2062
    Fitting Condition:        1E-10

   => Auxiliary Basis Set <=

  Basis Set: (CC-PVDZ AUX)
    Blend: CC-PVDZ-JKFIT
    Number of shells: 441
    Number of basis functions: 1251
    Number of Cartesian functions: 1427
    Spherical Harmonics?: true
    Max angular momentum: 3

  Minimum eigenvalue in the overlap matrix is 3.0815220701E-04.
  Reciprocal condition number of the overlap matrix is 4.7738696155E-05.
    Using symmetric orthogonalization.

  ==> Pre-Iterations <==

  SCF Guess: Superposition of Atomic Densities via on-the-fly atomic UHF (no occupation information).

   -------------------------
    Irrep   Nso     Nmo    
   -------------------------
     A        251     251 
   -------------------------
    Total     251     251
   -------------------------

  ==> Iterations <==

                           Total Energy        Delta E     RMS |[F,P]|

   @DF-RHF iter SAD:  -920.96806549077587   -9.20968e+02   0.00000e+00 
   @DF-RHF iter   1:  -921.25839937952753   -2.90334e-01   2.34979e-03 DIIS
   @DF-RHF iter   2:  -921.47190712323504   -2.13508e-01   1.08442e-03 DIIS
   @DF-RHF iter   3:  -921.51217251990113   -4.02654e-02   2.92091e-04 DIIS
   @DF-RHF iter   4:  -921.51635123055951   -4.17871e-03   1.34933e-04 DIIS
   @DF-RHF iter   5:  -921.51704121145337   -6.89981e-04   2.38777e-05 DIIS
   @DF-RHF iter   6:  -921.51707793282526   -3.67214e-05   9.52097e-06 DIIS
   @DF-RHF iter   7:  -921.51708449662658   -6.56380e-06   3.72692e-06 DIIS
   @DF-RHF iter   8:  -921.51708615264488   -1.65602e-06   1.92945e-06 DIIS
   @DF-RHF iter   9:  -921.51708672989923   -5.77254e-07   8.50679e-07 DIIS
   @DF-RHF iter  10:  -921.51708685890219   -1.29003e-07   3.28112e-07 DIIS
   @DF-RHF iter  11:  -921.51708687735095   -1.84488e-08   1.22080e-07 DIIS
   @DF-RHF iter  12:  -921.51708687912492   -1.77397e-09   4.32485e-08 DIIS
   @DF-RHF iter  13:  -921.51708687929431   -1.69393e-10   1.52741e-08 DIIS
   @DF-RHF iter  14:  -921.51708687931614   -2.18279e-11   6.48866e-09 DIIS
   @DF-RHF iter  15:  -921.51708687931887   -2.72848e-12   2.64776e-09 DIIS
   @DF-RHF iter  16:  -921.51708687932194   -3.06954e-12   1.17010e-09 DIIS
   @DF-RHF iter  17:  -921.51708687931989    2.04636e-12   4.69233e-10 DIIS
   @DF-RHF iter  18:  -921.51708687931864    1.25056e-12   1.55377e-10 DIIS
   @DF-RHF iter  19:  -921.51708687931887   -2.27374e-13   5.70973e-11 DIIS
  Energy and wave function converged.


  ==> Post-Iterations <==

    Orbital Energies [Eh]
    ---------------------

    Doubly Occupied:                                                      

       1A   -104.832451     2A    -11.305375     3A    -11.257755  
       4A    -11.257372     5A    -11.257275     6A    -11.252983  
       7A    -11.252754     8A    -11.242654     9A    -11.236089  
      10A    -11.235640    11A    -11.234238    12A    -11.234055  
      13A    -11.230935    14A    -10.559272    15A     -8.026932  
      16A     -8.023489    17A     -8.023387    18A     -1.185322  
      19A     -1.151624    20A     -1.111227    21A     -1.026054  
      22A     -1.019010    23A     -1.010083    24A     -0.942739  
      25A     -0.905102    26A     -0.842465    27A     -0.817845  
      28A     -0.785548    29A     -0.724316    30A     -0.660525  
      31A     -0.646250    32A     -0.644496    33A     -0.641469  
      34A     -0.618128    35A     -0.594333    36A     -0.575951  
      37A     -0.570277    38A     -0.547260    39A     -0.542944  
      40A     -0.535546    41A     -0.518665    42A     -0.502947  
      43A     -0.486754    44A     -0.483865    45A     -0.481382  
      46A     -0.467956    47A     -0.457974    48A     -0.450286  
      49A     -0.362448    50A     -0.345621    51A     -0.294931  

    Virtual:                                                              

      52A      0.103285    53A      0.120608    54A      0.170653  
      55A      0.184438    56A      0.189926    57A      0.195869  
      58A      0.211873    59A      0.226041    60A      0.228641  
      61A      0.246937    62A      0.253339    63A      0.260848  
      64A      0.266473    65A      0.281583    66A      0.284484  
      67A      0.295929    68A      0.312409    69A      0.327378  
      70A      0.357022    71A      0.384287    72A      0.389144  
      73A      0.399086    74A      0.424066    75A      0.428545  
      76A      0.442139    77A      0.474240    78A      0.487626  
      79A      0.510947    80A      0.567546    81A      0.588799  
      82A      0.596372    83A      0.616955    84A      0.622234  
      85A      0.637335    86A      0.652086    87A      0.664320  
      88A      0.670770    89A      0.679550    90A      0.688707  
      91A      0.703479    92A      0.710299    93A      0.715433  
      94A      0.719276    95A      0.725784    96A      0.736171  
      97A      0.740221    98A      0.751903    99A      0.762197  
     100A      0.780903   101A      0.782651   102A      0.798013  
     103A      0.823071   104A      0.828901   105A      0.833885  
     106A      0.848844   107A      0.852201   108A      0.855347  
     109A      0.868304   110A      0.875925   111A      0.881675  
     112A      0.883791   113A      0.891519   114A      0.896406  
     115A      0.901388   116A      0.911629   117A      0.915204  
     118A      0.921896   119A      0.923795   120A      0.928393  
     121A      0.939906   122A      0.946157   123A      0.950668  
     124A      0.971925   125A      0.979979   126A      0.984674  
     127A      0.993890   128A      1.006731   129A      1.018143  
     130A      1.033093   131A      1.064112   132A      1.075042  
     133A      1.112764   134A      1.130820   135A      1.138168  
     136A      1.150786   137A      1.165887   138A      1.195254  
     139A      1.197385   140A      1.228032   141A      1.232346  
     142A      1.260723   143A      1.283319   144A      1.284741  
     145A      1.295906   146A      1.315926   147A      1.329059  
     148A      1.346304   149A      1.372946   150A      1.379241  
     151A      1.421218   152A      1.457869   153A      1.470152  
     154A      1.475823   155A      1.481620   156A      1.493686  
     157A      1.508991   158A      1.537817   159A      1.557459  
     160A      1.574664   161A      1.611045   162A      1.624276  
     163A      1.636018   164A      1.646927   165A      1.686521  
     166A      1.700097   167A      1.722250   168A      1.746918  
     169A      1.757496   170A      1.769733   171A      1.801361  
     172A      1.805514   173A      1.809758   174A      1.828583  
     175A      1.838799   176A      1.846119   177A      1.862284  
     178A      1.875313   179A      1.882960   180A      1.897115  
     181A      1.903792   182A      1.913179   183A      1.917297  
     184A      1.926223   185A      1.930244   186A      1.942562  
     187A      1.964189   188A      1.966245   189A      1.974674  
     190A      2.005215   191A      2.010256   192A      2.021233  
     193A      2.026555   194A      2.028298   195A      2.043393  
     196A      2.055750   197A      2.063324   198A      2.071053  
     199A      2.084796   200A      2.096083   201A      2.106681  
     202A      2.113465   203A      2.127219   204A      2.135299  
     205A      2.158174   206A      2.178560   207A      2.188584  
     208A      2.211103   209A      2.232492   210A      2.249900  
     211A      2.264425   212A      2.271229   213A      2.289017  
     214A      2.307671   215A      2.337202   216A      2.367208  
     217A      2.392692   218A      2.401054   219A      2.407653  
     220A      2.421540   221A      2.432750   222A      2.453752  
     223A      2.464714   224A      2.494501   225A      2.519588  
     226A      2.530816   227A      2.545168   228A      2.615875  
     229A      2.645872   230A      2.656001   231A      2.670905  
     232A      2.717122   233A      2.723172   234A      2.751798  
     235A      2.762208   236A      2.768512   237A      2.798416  
     238A      2.820713   239A      2.824731   240A      2.875429  
     241A      2.917759   242A      2.937184   243A      2.949200  
     244A      2.987133   245A      3.003158   246A      3.022085  
     247A      3.055777   248A      3.112494   249A      3.181478  
     250A      3.257451   251A      3.761995  

    Final Occupation by Irrep:
              A 
    DOCC [    51 ]

  @DF-RHF Final Energy:  -921.51708687931887

   => Energetics <=

    Nuclear Repulsion Energy =            812.9816783572972554
    One-Electron Energy =               -2874.1695332617427994
    Two-Electron Energy =                1139.6707680251265629
    Total Energy =                       -921.5170868793188674

Computation Completed


Properties will be evaluated at   0.000000,   0.000000,   0.000000 [a0]

Properties computed using the SCF density matrix

  Nuclear Dipole Moment: [e a0]
     X:    26.3571      Y:     4.4601      Z:    -4.6757

  Electronic Dipole Moment: [e a0]
     X:   -25.3929      Y:    -4.2980      Z:     4.4681

  Dipole Moment: [e a0]
     X:     0.9642      Y:     0.1621      Z:    -0.2075     Total:     0.9995

  Dipole Moment: [D]
     X:     2.4507      Y:     0.4120      Z:    -0.5275     Total:     2.5404


*** tstop() called on skylm007.palmetto.clemson.edu at Wed Feb  9 07:03:43 2022
Module time:
	user time   =      12.42 seconds =       0.21 minutes
	system time =       0.76 seconds =       0.01 minutes
	total time  =         16 seconds =       0.27 minutes
Total time:
	user time   =      12.42 seconds =       0.21 minutes
	system time =       0.76 seconds =       0.01 minutes
	total time  =         16 seconds =       0.27 minutes
 MINTS: Wrapper to libmints.
   by Justin Turney

   Calculation information:
      Number of threads:                 1
      Number of atoms:                  26
      Number of AO shells:             119
      Number of SO shells:             119
      Number of primitives:            379
      Number of atomic orbitals:       264
      Number of basis functions:       251

      Number of irreps:                  1
      Integral cutoff                 1.00e-12
      Number of functions per irrep: [ 251 ]

 OEINTS: Overlap, kinetic, potential, dipole, and quadrupole integrals
         stored in file 35.

      Computing two-electron integrals...done
      Computed 298521831 non-zero two-electron integrals.
        Stored in file 33.


*** tstart() called on skylm007.palmetto.clemson.edu
*** at Wed Feb  9 07:09:34 2022


	Wfn Parameters:
	--------------------
	Wavefunction         = CCSD
	Number of irreps     = 1
	Number of MOs        = 251
	Number of active MOs = 251
	AO-Basis             = NONE
	Semicanonical        = false
	Reference            = RHF
	Print Level          = 1

	IRREP	# MOs	# FZDC	# DOCC	# SOCC	# VIRT	# FZVR
	-----	-----	------	------	------	------	------
	 A	   251	    0	    51	    0	    200	    0
	Transforming integrals...
	IWL integrals will be deleted.
	(OO|OO)...
	Presorting SO-basis two-electron integrals.
	Sorting File: SO Ints (nn|nn) nbuckets = 1
	Constructing frozen core operators
	Starting first half-transformation.
	Sorting half-transformed integrals.
	First half integral transformation complete.
	Starting second half-transformation.
	Two-electron integral transformation complete.
	(OO|OV)...
	Starting second half-transformation.
	Two-electron integral transformation complete.
	(OO|VV)...
	Starting second half-transformation.
	Two-electron integral transformation complete.
	(OV|OO)...
	Starting first half-transformation.
	Sorting half-transformed integrals.
	First half integral transformation complete.
	Starting second half-transformation.
	Two-electron integral transformation complete.
	(OV|OV)...
	Starting second half-transformation.
	Two-electron integral transformation complete.
	(OV|VV)...
	Starting second half-transformation.
	Two-electron integral transformation complete.
	(VV|OO)...
	Starting first half-transformation.
	Sorting half-transformed integrals.
	First half integral transformation complete.
	Starting second half-transformation.
	Two-electron integral transformation complete.
	(VV|OV)...
	Starting second half-transformation.
	Two-electron integral transformation complete.
	(VV|VV)...
	Starting second half-transformation.
	Two-electron integral transformation complete.
	Frozen core energy     =      0.00000000000000

	Size of irrep 0 of <ab|cd> integrals:   1600.000 (MW) /  12800.000 (MB)
	Total:                                  1600.000 (MW) /  12800.000 (MB)

	Size of irrep 0 of <ia|bc> integrals:    408.000 (MW) /   3264.000 (MB)
	Total:                                   408.000 (MW) /   3264.000 (MB)

	Size of irrep 0 of tijab amplitudes:     104.040 (MW) /    832.320 (MB)
	Total:                                   104.040 (MW) /    832.320 (MB)

	Nuclear Rep. energy          =    812.98167835729726
	SCF energy                   =   -921.51708687931887
	One-electron energy          =  -2874.16953324174528
	Two-electron energy          =   1139.66995496324807
	Reference energy             =   -921.51789992119996

*** tstop() called on skylm007.palmetto.clemson.edu at Wed Feb  9 07:19:32 2022
Module time:
	user time   =     166.29 seconds =       2.77 minutes
	system time =     100.05 seconds =       1.67 minutes
	total time  =        598 seconds =       9.97 minutes
Total time:
	user time   =     366.56 seconds =       6.11 minutes
	system time =     111.74 seconds =       1.86 minutes
	total time  =        965 seconds =      16.08 minutes
            **************************
            *                        *
            *        CCENERGY        *
            *                        *
            **************************

    Nuclear Rep. energy (wfn)     =  812.981678357297255
    SCF energy          (wfn)     = -921.517086879318867
    Reference energy    (file100) = -921.517899921199955

    Input parameters:
    -----------------
    Wave function   =     CCSD
    Reference wfn   =     RHF
    Brueckner       =     No
    Memory (Mbytes) =     62000.0
    Maxiter         =     50
    R_Convergence   =     1.0e-07
    E_Convergence   =     1.0e-08
    Restart         =     Yes
    DIIS            =     Yes
    AO Basis        =     NONE
    ABCD            =     NEW
    Cache Level     =     2
    Cache Type      =     LOW
    Print Level     =     1
    Num. of threads =     1
    # Amps to Print =     10
    Print MP2 Amps? =     No
    Analyze T2 Amps =     No
    Print Pair Ener =     No
    Local CC        =     No
    SCS-MP2         =     False
    SCSN-MP2        =     False
    SCS-CCSD        =     False

MP2 correlation energy -1.7848635296914401
                Solving CC Amplitude Equations
                ------------------------------
  Iter             Energy              RMS        T1Diag      D1Diag    New D1Diag    D2Diag
  ----     ---------------------    ---------   ----------  ----------  ----------   --------
     0        -1.784863529691440    0.000e+00    0.000000    0.000000    0.000000    0.181716
     1        -1.813564306409233    1.305e-01    0.006766    0.025066    0.025066    0.173310
     2        -1.862324437566495    4.643e-02    0.006901    0.025043    0.025043    0.187848
     3        -1.873501734154235    1.908e-02    0.007856    0.029125    0.029125    0.193163
     4        -1.873637884594217    6.097e-03    0.007951    0.029781    0.029781    0.195297
     5        -1.873815950731365    2.682e-03    0.007994    0.030154    0.030154    0.196370
     6        -1.873878412580593    8.037e-04    0.007999    0.030303    0.030303    0.196646
     7        -1.873852456449402    2.699e-04    0.007997    0.030346    0.030346    0.196683
     8        -1.873848663370736    1.012e-04    0.007998    0.030378    0.030378    0.196692
     9        -1.873852959738372    3.931e-05    0.007998    0.030392    0.030392    0.196693
    10        -1.873850154537139    2.218e-05    0.007998    0.030404    0.030404    0.196691
    11        -1.873850243666725    6.903e-06    0.007998    0.030407    0.030407    0.196691
    12        -1.873849886795400    3.489e-06    0.007999    0.030408    0.030408    0.196691
    13        -1.873849814776491    1.110e-06    0.007999    0.030409    0.030409    0.196690
    14        -1.873849801260032    4.997e-07    0.007999    0.030409    0.030409    0.196690
    15        -1.873849792829031    2.314e-07    0.007999    0.030409    0.030409    0.196690
    16        -1.873849789185315    9.098e-08    0.007999    0.030409    0.030409    0.196690

    Iterations converged.


    Largest TIA Amplitudes:
             49  45         0.0134117270
             48   0        -0.0116848097
             46   0         0.0104479495
             49  89        -0.0101111219
             49  44        -0.0100441211
             49  35        -0.0086731725
             50  77        -0.0083357693
             50   0         0.0081927575
             49  43        -0.0081273247
             36   4        -0.0080473135

    Largest TIjAb Amplitudes:
     49  49   1   1        -0.0863193735
     50  50   0   0        -0.0609023698
     48  48   0   0        -0.0392899999
     49  50   0   1        -0.0367035212
     50  49   1   0        -0.0367035212
     48  50   0   4        -0.0360640423
     50  48   4   0        -0.0360640423
     50  50   4   4        -0.0332857493
     48  50   4   0        -0.0276742006
     50  48   0   4        -0.0276742006

    SCF energy       (wfn)                    = -921.517086879318867
    Reference energy (file100)                = -921.517899921199955

    Opposite-spin MP2 correlation energy      =   -1.316272271115302
    Same-spin MP2 correlation energy          =   -0.468591258576138
    Singles MP2 correlation energy            =   -0.000000000000000
    MP2 correlation energy                    =   -1.784863529691440
      * MP2 total energy                      = -923.302763450891348

    Opposite-spin CCSD correlation energy     =   -1.452032729949465
    Same-spin CCSD correlation energy         =   -0.421817059235850
    Singles CCSD correlation energy           =    0.000000000000000
    CCSD correlation energy                   =   -1.873849789185315
      * CCSD total energy                     = -923.391749710385284


			**************************
			*                        *
			*         CCHBAR         *
			*                        *
			**************************


			**************************
			*        CCLAMBDA        *
			**************************


	Nuclear Rep. energy (wfn)     =  812.981678357297255
	Reference           (wfn)     =                    0
	SCF energy          (wfn)     = -921.517086879318867
	Reference energy    (CC_INFO) = -921.517899921199955
	CCSD energy         (CC_INFO) =   -1.873849789185315
	Total CCSD energy   (CC_INFO) = -923.391749710385284

	Input parameters:
	-----------------
	Maxiter           =     50
	Convergence       = 1.0e-07
	Restart           =     No
	Cache Level       =     2
	Model III         =     No
	DIIS              =     Yes
	AO Basis          =     No
	ABCD              =     NEW
	Local CC          =     No
	Parameters for left-handed eigenvectors:
	    Irr   Root  Ground-State?    EOM energy        R0
	  1   0     0        Yes       0.0000000000   1.0000000000
	Labels for eigenvector 1:
	LIA 0 -1, Lia 0 -1, LIJAB 0 -1, Lijab 0 -1, LIjAb 0 -1, 2LIjAb - LIjbA 0 -1
	Symmetry of left-hand state: A
	Symmetry of left-hand eigenvector: A

	          Solving Lambda Equations
	          ------------------------
	Iter     PseudoEnergy or Norm         RMS  
	----     ---------------------     --------
	   0        -1.873964759503164    0.000e+00
	   1        -1.817099175323631    3.366e-02
	   2        -1.812228036352336    7.246e-03
	   3        -1.810731617292482    2.542e-03
	   4        -1.810658670266911    8.664e-04
	   5        -1.810704997733612    3.680e-04
	   6        -1.810693312223335    1.324e-04
	   7        -1.810691790715757    5.376e-05
	   8        -1.810693473168501    2.081e-05
	   9        -1.810693277963101    8.249e-06
	  10        -1.810693497538171    3.220e-06
	  11        -1.810693423248364    1.243e-06
	  12        -1.810693387967509    5.020e-07
	  13        -1.810693385825577    2.190e-07
	  14        -1.810693379808843    1.023e-07
	  15        -1.810693379730052    4.717e-08

	Largest LIA Amplitudes:
	         49  45         0.0104574830
	         50   0         0.0084828619
	         49  89        -0.0080905726
	         48   0        -0.0078591885
	         49  44        -0.0078318957
	         46   0         0.0075188146
	         49  35        -0.0069168334
	         50  77        -0.0065383101
	         49  43        -0.0064392022
	         48  79         0.0061909668

	Largest LIjAb Amplitudes:
	 49  49   1   1        -0.0815035063
	 50  50   0   0        -0.0566168618
	 48  48   0   0        -0.0364280883
	 49  50   0   1        -0.0346998500
	 50  49   1   0        -0.0346998500
	 48  50   0   4        -0.0337267796
	 50  48   4   0        -0.0337267796
	 50  50   4   4        -0.0308460121
	 48  48   4   4        -0.0263852244
	 48  50   4   0        -0.0259663975

	Iterations converged.

	Overlap <L|e^T> =        0.27569543168

			**************************
			*                        *
			*        CCDENSITY       *
			*                        *
			**************************


	Input parameters:
	-----------------
	Wave function    =   CCSD
	Reference wfn    =   RHF
	Dertype          = 1
	Tolerance        = 1.0e-14
	Cache Level      = 2
	AO Basis         = No
	OPDM Only        = No
	Relax OPDM       = Yes
	Compute Xi       = No
	Use Zeta         = No
	Xi connected     = Yes
	Compute NO       = No

	Nuclear Rep. energy (wfn)     =  812.981678357297255
	SCF energy          (wfn)     = -921.517086879318867
	Reference energy    (file100) = -921.517899921199955
	CCSD energy         (CC_INFO) =   -1.873849789185315
	Total CCSD energy   (CC_INFO) = -923.391749710385284
	Number of States = 1

	Ground?  State     EOM Energy       R0
	  Yes     0  A    0.0000000000   1.00000000

	Virial Theorem Data:
	--------------------
	Kinetic energy (ref)   =  920.765226612683023
	Kinetic energy (corr)  =    1.703658903470203
	Kinetic energy (total) =  922.468885516153250
	-V/T (ref)             =    2.000817443238257
	-V/T (corr)            =    2.099897277188790
	-V/T (total)           =    2.001000428533387
    Molecular point group: c1
    Full point group: C1

    Geometry (in Bohr), charge = 0, multiplicity = 1:

       Center              X                  Y                   Z       
    ------------   -----------------  -----------------  -----------------
         C            7.186526049238     2.805866832267     0.879399527795
         C            4.330601853095     3.336815622833     1.054374938929
         C            3.185488292304     1.019181803252    -0.202206007098
         C            4.933537870684    -0.156945942710    -1.688288521884
         C            7.455868713900     1.192027493043    -1.525709714133
         C            0.499949362536     0.345362158698     0.095420188483
         C           -0.277000195589    -2.196349715661     0.361079776926
         C           -2.839412129926    -2.811648321562     0.654741327096
         C           -4.675919788238    -0.896669785890     0.710008257361
         C           -3.926690622648     1.640818550578     0.488836601364
         C           -1.365295360966     2.254868047511     0.198476402735
         C            4.557629770356    -2.319416239855    -3.479877390195
         H           -0.800701886463     4.236867609949     0.023642721060
         H           -5.342537686529     3.147037986957     0.546830406428
         CL          -7.852728929115    -1.658495865833     1.083185703438
         H           -3.400451029587    -4.790968252354     0.866127981216
         H            1.152747693671    -3.688893204070     0.397092287699
         H            7.755361958893     1.660938464636     2.525604206369
         H            8.350716395266     4.530907105344     0.858361206840
         H            9.073544197158    -0.123826602635    -1.457023838651
         H            7.722592218152     2.387283046848    -3.225748910570
         H            2.546112685838    -2.755744553593    -3.768228809952
         H            5.405508308874    -1.859092183777    -5.330068555382
         H            5.512814517182    -4.045327676676    -2.795539530026
         H            3.661635025231     3.609654280826     3.008964023917
         H            3.824433041213     5.062256517848    -0.017364335863

	Presorting MO-basis TPDM.
	Sorting File: MO TPDM (AA|AA) nbuckets = 1
	Starting first half-transformation.
	Sorting half-transformed TPDM.
	First half integral transformation complete.


  -Total gradient:
     Atom            X                  Y                   Z
    ------   -----------------  -----------------  -----------------
       1       -0.000918302797    -0.001114285169    -0.000407226833
       2        0.000371261503    -0.001239555029    -0.001390261207
       3       -0.009630804166     0.003713152563     0.006349375415
       4        0.007170240511    -0.004614564863    -0.005204912622
       5       -0.002207273752    -0.000006625896     0.000727347500
       6        0.005851720754     0.001423773890    -0.001069392267
       7        0.001860786710    -0.005214313724    -0.000308575624
       8        0.000870392408     0.003524091999    -0.000458749485
       9       -0.010741536507    -0.002639685787     0.001199076178
      10        0.002640690208    -0.002678775684    -0.000135390874
      11       -0.000686748937     0.005326284794     0.000064715670
      12        0.000138546086     0.002004741857     0.001442935526
      13        0.001156505279    -0.000141995893    -0.000200712182
      14        0.000574830577     0.001000199217    -0.000087122236
      15        0.003620451567     0.000856959651    -0.000370729865
      16        0.000961831504    -0.000635127818    -0.000068946574
      17        0.001211956532     0.000667237563     0.000029234859
      18       -0.000680107117     0.000393207874    -0.001154318817
      19       -0.000590503537    -0.000770993482    -0.000091073528
      20       -0.000746849258     0.000477510270    -0.000130999760
      21       -0.000268310446    -0.000281953695     0.000702333685
      22        0.000456295806     0.000376026958     0.000661509996
      23       -0.000278709336    -0.000147301642     0.001061893996
      24       -0.000498110718     0.000958442464    -0.000365995816
      25        0.000012787176    -0.000335478602    -0.000994230269
      26        0.000348959871    -0.000900971830     0.000200215158


			-----------------------------------------
			 OPTKING 2.0: for geometry optimizations 
			  - R.A. King,  Bethel University        
			-----------------------------------------

	Internal coordinates to be generated automatically.
	Detected frag 1 with atoms:  1 2 3 4 5 6 7 8 9 10 11 12 13 14 15 16 17 18 19 20
	 21 22 23 24 25 26
	---Fragment 1 Bond Connectivity---
	 1 : 2 5 18 19
	 2 : 1 3 25 26
	 3 : 2 4 6
	 4 : 3 5 12
	 5 : 1 4 20 21
	 6 : 3 7 11
	 7 : 6 8 17
	 8 : 7 9 16
	 9 : 8 10 15
	 10 : 9 11 14
	 11 : 6 10 13
	 12 : 4 22 23 24
	 13 : 11
	 14 : 10
	 15 : 9
	 16 : 8
	 17 : 7
	 18 : 1
	 19 : 1
	 20 : 5
	 21 : 5
	 22 : 12
	 23 : 12
	 24 : 12
	 25 : 2
	 26 : 2

	---Fragment 1 Geometry and Gradient---
	 C           7.1865260492        2.8058668323        0.8793995278
	 C           4.3306018531        3.3368156228        1.0543749389
	 C           3.1854882923        1.0191818033       -0.2022060071
	 C           4.9335378707       -0.1569459427       -1.6882885219
	 C           7.4558687139        1.1920274930       -1.5257097141
	 C           0.4999493625        0.3453621587        0.0954201885
	 C          -0.2770001956       -2.1963497157        0.3610797769
	 C          -2.8394121299       -2.8116483216        0.6547413271
	 C          -4.6759197882       -0.8966697859        0.7100082574
	 C          -3.9266906226        1.6408185506        0.4888366014
	 C          -1.3652953610        2.2548680475        0.1984764027
	 C           4.5576297704       -2.3194162399       -3.4798773902
	 H          -0.8007018865        4.2368676099        0.0236427211
	 H          -5.3425376865        3.1470379870        0.5468304064
	 CL         -7.8527289291       -1.6584958658        1.0831857034
	 H          -3.4004510296       -4.7909682524        0.8661279812
	 H           1.1527476937       -3.6888932041        0.3970922877
	 H           7.7553619589        1.6609384646        2.5256042064
	 H           8.3507163953        4.5309071053        0.8583612068
	 H           9.0735441972       -0.1238266026       -1.4570238387
	 H           7.7225922182        2.3872830468       -3.2257489106
	 H           2.5461126858       -2.7557445536       -3.7682288100
	 H           5.4055083089       -1.8590921838       -5.3300685554
	 H           5.5128145172       -4.0453276767       -2.7955395300
	 H           3.6616350252        3.6096542808        3.0089640239
	 H           3.8244330412        5.0622565178       -0.0173643359
	            -0.0009183028       -0.0011142852       -0.0004072268
	             0.0003712615       -0.0012395550       -0.0013902612
	            -0.0096308042        0.0037131526        0.0063493754
	             0.0071702405       -0.0046145649       -0.0052049126
	            -0.0022072738       -0.0000066259        0.0007273475
	             0.0058517208        0.0014237739       -0.0010693923
	             0.0018607867       -0.0052143137       -0.0003085756
	             0.0008703924        0.0035240920       -0.0004587495
	            -0.0107415365       -0.0026396858        0.0011990762
	             0.0026406902       -0.0026787757       -0.0001353909
	            -0.0006867489        0.0053262848        0.0000647157
	             0.0001385461        0.0020047419        0.0014429355
	             0.0011565053       -0.0001419959       -0.0002007122
	             0.0005748306        0.0010001992       -0.0000871222
	             0.0036204516        0.0008569597       -0.0003707299
	             0.0009618315       -0.0006351278       -0.0000689466
	             0.0012119565        0.0006672376        0.0000292349
	            -0.0006801071        0.0003932079       -0.0011543188
	            -0.0005905035       -0.0007709935       -0.0000910735
	            -0.0007468493        0.0004775103       -0.0001309998
	            -0.0002683104       -0.0002819537        0.0007023337
	             0.0004562958        0.0003760270        0.0006615100
	            -0.0002787093       -0.0001473016        0.0010618940
	            -0.0004981107        0.0009584425       -0.0003659958
	             0.0000127872       -0.0003354786       -0.0009942303
	             0.0003489599       -0.0009009718        0.0002002152

	Previous optimization step data not found.  Starting new optimization.

	---Fragment 1 Intrafragment Coordinates---
	 - Coordinate -           - BOHR/RAD -       - ANG/DEG -
	 R(1,2)           =         2.910125	       1.539972
	 R(1,5)           =         2.908878	       1.539312
	 R(1,18)          =         2.084328	       1.102979
	 R(1,19)          =         2.081237	       1.101343
	 R(2,3)           =         2.874319	       1.521024
	 R(2,25)          =         2.083837	       1.102719
	 R(2,26)          =         2.093318	       1.107736
	 R(3,4)           =         2.578254	       1.364353
	 R(3,6)           =         2.784732	       1.473617
	 R(4,5)           =         2.865016	       1.516101
	 R(4,12)          =         2.833262	       1.499298
	 R(5,20)          =         2.086400	       1.104075
	 R(5,21)          =         2.095211	       1.108738
	 R(6,7)           =         2.671053	       1.413460
	 R(6,11)          =         2.671324	       1.413604
	 R(7,8)           =         2.651563	       1.403147
	 R(7,17)          =         2.067163	       1.093895
	 R(8,9)           =         2.653857	       1.404361
	 R(8,16)          =         2.068129	       1.094407
	 R(9,10)          =         2.655016	       1.404974
	 R(9,15)          =         3.288124	       1.740000
	 R(10,11)         =         2.649927	       1.402281
	 R(10,14)         =         2.068014	       1.094346
	 R(11,13)         =         2.068249	       1.094470
	 R(12,22)         =         2.078396	       1.099840
	 R(12,23)         =         2.086625	       1.104194
	 R(12,24)         =         2.087934	       1.104887
	 B(1,2,3)         =         1.790127	     102.566700
	 B(1,2,25)        =         1.977226	     113.286730
	 B(1,2,26)        =         1.935744	     110.909973
	 B(1,5,4)         =         1.799406	     103.098356
	 B(1,5,20)        =         1.976291	     113.233108
	 B(1,5,21)        =         1.945680	     111.479279
	 B(2,1,5)         =         1.815021	     103.993068
	 B(2,1,18)        =         1.897117	     108.696781
	 B(2,1,19)        =         1.980503	     113.474479
	 B(2,3,4)         =         1.928043	     110.468727
	 B(2,3,6)         =         2.132448	     122.180296
	 B(3,2,25)        =         1.968972	     112.813790
	 B(3,2,26)        =         1.922464	     110.149081
	 B(3,4,5)         =         1.927736	     110.451137
	 B(3,4,12)        =         2.242975	     128.512983
	 B(3,6,7)         =         2.119286	     121.426120
	 B(3,6,11)        =         2.099640	     120.300495
	 B(4,3,6)         =         2.220651	     127.233923
	 B(4,5,20)        =         1.968736	     112.800279
	 B(4,5,21)        =         1.912013	     109.550255
	 B(4,12,22)       =         1.956670	     112.108928
	 B(4,12,23)       =         1.916015	     109.779573
	 B(4,12,24)       =         1.942233	     111.281772
	 B(5,1,18)        =         1.899693	     108.844371
	 B(5,1,19)        =         1.981979	     113.559042
	 B(5,4,12)        =         2.108376	     120.801049
	 B(6,7,8)         =         2.109388	     120.859024
	 B(6,7,17)        =         2.080147	     119.183628
	 B(6,11,10)       =         2.110063	     120.897728
	 B(6,11,13)       =         2.084192	     119.415378
	 B(7,6,11)        =         2.063785	     118.246186
	 B(7,8,9)         =         2.098568	     120.239106
	 B(7,8,16)        =         2.089281	     119.706964
	 B(8,7,17)        =         2.093145	     119.928351
	 B(8,9,10)        =         2.085899	     119.513219
	 B(8,9,15)        =         2.098751	     120.249548
	 B(9,8,16)        =         2.095250	     120.048967
	 B(9,10,11)       =         2.098279	     120.222516
	 B(9,10,14)       =         2.095045	     120.037222
	 B(10,9,15)       =         2.098475	     120.233761
	 B(10,11,13)      =         2.088843	     119.681864
	 B(11,10,14)      =         2.089860	     119.740132
	 B(18,1,19)       =         1.886638	     108.096378
	 B(20,5,21)       =         1.862719	     106.725958
	 B(22,12,23)      =         1.892897	     108.455036
	 B(22,12,24)      =         1.890932	     108.342411
	 B(23,12,24)      =         1.861979	     106.683530
	 B(25,2,26)       =         1.869917	     107.138345
	 D(1,2,3,4)       =        -0.348852	     -19.987768
	 D(1,2,3,6)       =         2.856778	     163.681328
	 D(1,5,4,3)       =         0.300808	      17.235016
	 D(1,5,4,12)      =        -2.930014	    -167.877438
	 D(2,1,5,4)       =        -0.499803	     -28.636594
	 D(2,1,5,20)      =        -2.632586	    -150.836039
	 D(2,1,5,21)      =         1.549857	      88.800282
	 D(2,3,4,5)       =         0.031048	       1.778925
	 D(2,3,4,12)      =        -3.012567	    -172.607364
	 D(2,3,6,7)       =        -2.462500	    -141.090867
	 D(2,3,6,11)      =         0.645400	      36.978697
	 D(3,2,1,5)       =         0.514363	      29.470838
	 D(3,2,1,18)      =        -1.507311	     -86.362554
	 D(3,2,1,19)      =         2.676299	     153.340666
	 D(3,4,5,20)      =         2.438658	     139.724821
	 D(3,4,5,21)      =        -1.772435	    -101.553028
	 D(3,4,12,22)     =         0.167316	       9.586503
	 D(3,4,12,23)     =         2.272366	     130.196980
	 D(3,4,12,24)     =        -1.953574	    -111.931530
	 D(3,6,7,8)       =         3.136447	     179.705195
	 D(3,6,7,17)      =         0.029066	       1.665353
	 D(3,6,11,10)     =        -3.138209	    -179.806114
	 D(3,6,11,13)     =         0.017671	       1.012458
	 D(4,3,2,25)      =        -2.482003	    -142.208323
	 D(4,3,2,26)      =         1.712697	      98.130327
	 D(4,3,6,7)       =         0.754466	      43.227732
	 D(4,3,6,11)      =        -2.420819	    -138.702704
	 D(4,5,1,18)      =         1.520059	      87.092954
	 D(4,5,1,19)      =        -2.660781	    -152.451540
	 D(5,1,2,25)      =         2.641906	     151.370088
	 D(5,1,2,26)      =        -1.537774	     -88.107935
	 D(5,4,3,6)       =         3.104559	     177.878117
	 D(5,4,12,22)     =        -2.867367	    -164.288012
	 D(5,4,12,23)     =        -0.762317	     -43.677535
	 D(5,4,12,24)     =         1.294929	      74.193955
	 D(6,3,2,25)      =         0.723627	      41.460773
	 D(6,3,2,26)      =        -1.364858	     -78.200577
	 D(6,3,4,12)      =         0.060944	       3.491829
	 D(6,7,8,9)       =        -0.009298	      -0.532741
	 D(6,7,8,16)      =        -3.136753	    -179.722706
	 D(6,11,10,9)     =         0.012040	       0.689867
	 D(6,11,10,14)    =        -3.131840	    -179.441216
	 D(7,6,11,10)     =        -0.029252	      -1.676026
	 D(7,6,11,13)     =         3.126627	     179.142545
	 D(7,8,9,10)      =        -0.008597	      -0.492558
	 D(7,8,9,15)      =        -3.138387	    -179.816317
	 D(8,7,6,11)      =         0.027876	       1.597200
	 D(8,9,10,11)     =         0.007241	       0.414863
	 D(8,9,10,14)     =        -3.132057	    -179.453662
	 D(9,8,7,17)      =         3.097830	     177.492594
	 D(9,10,11,13)    =         3.139309	     179.869135
	 D(10,9,8,16)     =         3.118810	     178.694624
	 D(11,6,7,17)     =        -3.079505	    -176.442642
	 D(11,10,9,15)    =         3.137033	     179.738730
	 D(12,4,5,20)     =        -0.792164	     -45.387633
	 D(12,4,5,21)     =         1.279929	      73.334518
	 D(13,11,10,14)   =        -0.004572	      -0.261949
	 D(14,10,9,15)    =        -0.002265	      -0.129795
	 D(15,9,8,16)     =        -0.010980	      -0.629135
	 D(16,8,7,17)     =        -0.029625	      -1.697371
	 D(18,1,2,25)     =         0.620232	      35.536695
	 D(18,1,2,26)     =         2.723738	     156.058672
	 D(18,1,5,20)     =        -0.612724	     -35.106492
	 D(18,1,5,21)     =        -2.713466	    -155.470171
	 D(19,1,2,25)     =        -1.479343	     -84.760085
	 D(19,1,2,26)     =         0.624163	      35.761892
	 D(19,1,5,20)     =         1.489621	      85.349014
	 D(19,1,5,21)     =        -0.611121	     -35.014665
	 R(7,12)          =         6.175900	       3.268146

	Current energy   :      -923.3917497104

	Generating empirical Hessian (Schlegel '84) for each fragment.
	Taking RFO optimization step.
	Going to follow RFO solution 1.
	Using RFO vector 1.
	Norm of target step-size    0.14847
	Projected energy change by RFO approximation:        -0.0006212006

	Back-transformation to cartesian coordinates...
	Successfully converged to displaced geometry.

	--- Internal Coordinate Step in ANG or DEG, aJ/ANG or AJ/DEG ---
	 ---------------------------------------------------------------------------
	   Coordinate                Previous        Force       Change         New 
	   ----------                --------       ------       ------       ------
	    1 R(1,2)          =      1.539972     0.013707     0.003686     1.543657
	    2 R(1,5)          =      1.539312     0.014924     0.003860     1.543172
	    3 R(1,18)         =      1.102979     0.010822     0.002078     1.105057
	    4 R(1,19)         =      1.101343     0.007978     0.001524     1.102867
	    5 R(2,3)          =      1.521024     0.030377     0.006225     1.527249
	    6 R(2,25)         =      1.102719     0.008080     0.001550     1.104269
	    7 R(2,26)         =      1.107736     0.007657     0.001493     1.109229
	    8 R(3,4)          =      1.364353    -0.046016    -0.005722     1.358631
	    9 R(3,6)          =      1.473617     0.056776     0.010757     1.484374
	   10 R(4,5)          =      1.516101     0.030495     0.006086     1.522187
	   11 R(4,12)         =      1.499298     0.032373     0.006575     1.505873
	   12 R(5,20)         =      1.104075     0.007288     0.001405     1.105480
	   13 R(5,21)         =      1.108738     0.006301     0.001233     1.109971
	   14 R(6,7)          =      1.413460    -0.012345    -0.001693     1.411767
	   15 R(6,11)         =      1.413604    -0.009398    -0.001372     1.412232
	   16 R(7,8)          =      1.403147    -0.009183    -0.001315     1.401832
	   17 R(7,17)         =      1.093895    -0.002942    -0.000548     1.093347
	   18 R(8,9)          =      1.404361    -0.020402    -0.002927     1.401433
	   19 R(8,16)         =      1.094407    -0.002801    -0.000523     1.093884
	   20 R(9,10)         =      1.404974    -0.021576    -0.003091     1.401882
	   21 R(9,15)         =      1.740000     0.030801     0.006267     1.746267
	   22 R(10,11)        =      1.402281    -0.008480    -0.001192     1.401089
	   23 R(10,14)        =      1.094346    -0.002739    -0.000511     1.093835
	   24 R(11,13)        =      1.094470    -0.001619    -0.000302     1.094168
	   25 R(12,22)        =      1.099840     0.005045     0.000959     1.100799
	   26 R(12,23)        =      1.104194     0.008959     0.001727     1.105922
	   27 R(12,24)        =      1.104887     0.009392     0.001815     1.106702
	   28 B(1,2,3)        =    102.566700    -0.000011     0.294488   102.861189
	   29 B(1,2,25)       =    113.286730    -0.000020    -0.197557   113.089173
	   30 B(1,2,26)       =    110.909973     0.000015    -0.019585   110.890388
	   31 B(1,5,4)        =    103.098356    -0.000010     0.274389   103.372744
	   32 B(1,5,20)       =    113.233108    -0.000014    -0.109865   113.123243
	   33 B(1,5,21)       =    111.479279     0.000019    -0.002056   111.477223
	   34 B(2,1,5)        =    103.993068    -0.000080     0.117241   104.110310
	   35 B(2,1,18)       =    108.696781     0.000015    -0.012248   108.684532
	   36 B(2,1,19)       =    113.474479     0.000037     0.050785   113.525264
	   37 B(2,3,4)        =    110.468727     0.000060     0.189497   110.658224
	   38 B(2,3,6)        =    122.180296    -0.000026    -0.215782   121.964514
	   39 B(3,2,25)       =    112.813790     0.000037     0.162719   112.976510
	   40 B(3,2,26)       =    110.149081    -0.000011    -0.055415   110.093666
	   41 B(3,4,5)        =    110.451137     0.000049     0.184670   110.635807
	   42 B(3,4,12)       =    128.512983     0.000008     0.157004   128.669987
	   43 B(3,6,7)        =    121.426120     0.000031     0.203746   121.629866
	   44 B(3,6,11)       =    120.300495     0.000084     0.181501   120.481996
	   45 B(4,3,6)        =    127.233923    -0.000034     0.063790   127.297713
	   46 B(4,5,20)       =    112.800279     0.000024     0.054863   112.855142
	   47 B(4,5,21)       =    109.550255    -0.000012    -0.096882   109.453373
	   48 B(4,12,22)      =    112.108928     0.000061     0.297928   112.406856
	   49 B(4,12,23)      =    109.779573     0.000003    -0.019845   109.759729
	   50 B(4,12,24)      =    111.281772    -0.000008    -0.023906   111.257866
	   51 B(5,1,18)       =    108.844371     0.000013    -0.011433   108.832938
	   52 B(5,1,19)       =    113.559042     0.000039     0.057376   113.616417
	   53 B(5,4,12)       =    120.801049    -0.000057    -0.276745   120.524304
	   54 B(6,7,8)        =    120.859024     0.000116     0.417157   121.276180
	   55 B(6,7,17)       =    119.183628     0.000046     0.281871   119.465499
	   56 B(6,11,10)      =    120.897728     0.000122     0.440612   121.338340
	   57 B(6,11,13)      =    119.415378     0.000031     0.208456   119.623834
	   58 B(7,6,11)       =    118.246186    -0.000115    -0.383210   117.862976
	   59 B(7,8,9)        =    120.239106    -0.000180    -0.599319   119.639787
	   60 B(7,8,16)       =    119.706964     0.000177     0.706774   120.413738
	   61 B(8,7,17)       =    119.928351    -0.000162    -0.692457   119.235893
	   62 B(8,9,10)       =    119.513219     0.000248     0.758160   120.271379
	   63 B(8,9,15)       =    120.249548    -0.000122    -0.372843   119.876705
	   64 B(9,8,16)       =    120.048967     0.000003    -0.105699   119.943268
	   65 B(9,10,11)      =    120.222516    -0.000192    -0.632738   119.589778
	   66 B(9,10,14)      =    120.037222     0.000009    -0.091147   119.946076
	   67 B(10,9,15)      =    120.233761    -0.000126    -0.384073   119.849687
	   68 B(10,11,13)     =    119.681864    -0.000152    -0.648005   119.033859
	   69 B(11,10,14)     =    119.740132     0.000183     0.723944   120.464075
	   70 B(18,1,19)      =    108.096378    -0.000026    -0.194723   107.901655
	   71 B(20,5,21)      =    106.725958    -0.000006    -0.114139   106.611819
	   72 B(22,12,23)     =    108.455036    -0.000039    -0.210105   108.244932
	   73 B(22,12,24)     =    108.342411    -0.000017    -0.022829   108.319583
	   74 B(23,12,24)     =    106.683530    -0.000004    -0.043835   106.639695
	   75 B(25,2,26)      =    107.138345    -0.000010    -0.170074   106.968271
	   76 D(1,2,3,4)      =    -19.987768    -0.000000     1.049236   -18.938532
	   77 D(1,2,3,6)      =    163.681328    -0.000002     0.402086   164.083413
	   78 D(1,5,4,3)      =     17.235016     0.000001    -0.997705    16.237310
	   79 D(1,5,4,12)     =   -167.877438     0.000003    -0.226082  -168.103521
	   80 D(2,1,5,4)      =    -28.636594     0.000007     1.667682   -26.968912
	   81 D(2,1,5,20)     =   -150.836039     0.000004     1.481371  -149.354668
	   82 D(2,1,5,21)     =     88.800282     0.000005     1.708305    90.508587
	   83 D(2,3,4,5)      =      1.778925    -0.000001    -0.038766     1.740159
	   84 D(2,3,4,12)     =   -172.607364    -0.000002    -0.862220  -173.469584
	   85 D(2,3,6,7)      =   -141.090867     0.000001     1.047701  -140.043166
	   86 D(2,3,6,11)     =     36.978697     0.000002     1.114284    38.092980
	   87 D(3,2,1,5)      =     29.470838    -0.000009    -1.686944    27.783895
	   88 D(3,2,1,18)     =    -86.362554    -0.000005    -1.726737   -88.089292
	   89 D(3,2,1,19)     =    153.340666    -0.000005    -1.504258   151.836407
	   90 D(3,4,5,20)     =    139.724821    -0.000001    -0.923043   138.801778
	   91 D(3,4,5,21)     =   -101.553028    -0.000001    -1.096888  -102.649916
	   92 D(3,4,12,22)    =      9.586503     0.000004     1.050204    10.636707
	   93 D(3,4,12,23)    =    130.196980     0.000002     0.967015   131.163995
	   94 D(3,4,12,24)    =   -111.931530     0.000001     0.885735  -111.045795
	   95 D(3,6,7,8)      =    179.705195     0.000001    -0.012955   179.692240
	   96 D(3,6,7,17)     =      1.665353    -0.000000    -0.237132     1.428222
	   97 D(3,6,11,10)    =   -179.806114    -0.000001    -0.064044  -179.870158
	   98 D(3,6,11,13)    =      1.012458    -0.000001    -0.150885     0.861572
	   99 D(4,3,2,25)     =   -142.208323     0.000002     1.012470  -141.195852
	  100 D(4,3,2,26)     =     98.130327     0.000001     1.159497    99.289825
	  101 D(4,3,6,7)      =     43.227732    -0.000002     0.284289    43.512021
	  102 D(4,3,6,11)     =   -138.702704    -0.000001     0.350872  -138.351833
	  103 D(4,5,1,18)     =     87.092954     0.000003     1.707157    88.800110
	  104 D(4,5,1,19)     =   -152.451540     0.000004     1.489024  -150.962516
	  105 D(5,1,2,25)     =    151.370088    -0.000002    -1.404878   149.965210
	  106 D(5,1,2,26)     =    -88.107935    -0.000006    -1.775290   -89.883226
	  107 D(5,4,3,6)      =    177.878117     0.000001     0.639015   178.517132
	  108 D(5,4,12,22)    =   -164.288012     0.000001     0.129949  -164.158063
	  109 D(5,4,12,23)    =    -43.677535    -0.000001     0.046761   -43.630775
	  110 D(5,4,12,24)    =     74.193955    -0.000002    -0.034519    74.159435
	  111 D(6,3,2,25)     =     41.460773     0.000001     0.365320    41.826093
	  112 D(6,3,2,26)     =    -78.200577    -0.000000     0.512347   -77.688230
	  113 D(6,3,4,12)     =      3.491829    -0.000001    -0.184439     3.307390
	  114 D(6,7,8,9)      =     -0.532741     0.000001     0.118421    -0.414320
	  115 D(6,7,8,16)     =   -179.722706    -0.000000    -0.039785  -179.762490
	  116 D(6,11,10,9)    =      0.689867     0.000000     0.033199     0.723066
	  117 D(6,11,10,14)   =   -179.441216     0.000000     0.067285  -179.373932
	  118 D(7,6,11,10)    =     -1.676026     0.000001     0.010797    -1.665229
	  119 D(7,6,11,13)    =    179.142545     0.000000    -0.076044   179.066501
	  120 D(7,8,9,10)     =     -0.492558    -0.000000    -0.086096    -0.578654
	  121 D(7,8,9,15)     =   -179.816317    -0.000001    -0.218471  -180.034788
	  122 D(8,7,6,11)     =      1.597200    -0.000001    -0.088092     1.509108
	  123 D(8,9,10,11)    =      0.414863     0.000000     0.011905     0.426768
	  124 D(8,9,10,14)    =   -179.453662    -0.000000    -0.023081  -179.476743
	  125 D(9,8,7,17)     =    177.492594     0.000002     0.361014   177.853608
	  126 D(9,10,11,13)   =    179.869135     0.000001     0.126423   179.995558
	  127 D(10,9,8,16)    =    178.694624     0.000001     0.077997   178.772621
	  128 D(11,6,7,17)    =   -176.442642    -0.000002    -0.312269  -176.754911
	  129 D(11,10,9,15)   =    179.738730     0.000001     0.144319   179.883049
	  130 D(12,4,5,20)    =    -45.387633     0.000001    -0.151420   -45.539053
	  131 D(12,4,5,21)    =     73.334518     0.000001    -0.325265    73.009254
	  132 D(13,11,10,14)  =     -0.261949     0.000001     0.160508    -0.101440
	  133 D(14,10,9,15)   =     -0.129795     0.000001     0.109333    -0.020462
	  134 D(15,9,8,16)    =     -0.629135    -0.000000    -0.054378    -0.683513
	  135 D(16,8,7,17)    =     -1.697371     0.000002     0.202808    -1.494563
	  136 D(18,1,2,25)    =     35.536695     0.000002    -1.444672    34.092023
	  137 D(18,1,2,26)    =    156.058672    -0.000002    -1.815084   154.243588
	  138 D(18,1,5,20)    =    -35.106492    -0.000000     1.520846   -33.585646
	  139 D(18,1,5,21)    =   -155.470171     0.000001     1.747780  -153.722390
	  140 D(19,1,2,25)    =    -84.760085     0.000001    -1.222192   -85.982277
	  141 D(19,1,2,26)    =     35.761892    -0.000002    -1.592605    34.169287
	  142 D(19,1,5,20)    =     85.349014     0.000000     1.302713    86.651727
	  143 D(19,1,5,21)    =    -35.014665     0.000001     1.529648   -33.485017
	  144 R(7,12)         =      3.268146     0.006854     0.017109     3.285255
	 ---------------------------------------------------------------------------
	Successfully symmetrized geometry.

  ==> Convergence Check <==

  Measures of convergence in internal coordinates in au.
  Criteria marked as inactive (o), active & met (*), and active & unmet ( ).
  --------------------------------------------------------------------------------------------- ~
   Step     Total Energy     Delta E     MAX Force     RMS Force      MAX Disp      RMS Disp    ~
  --------------------------------------------------------------------------------------------- ~
    Convergence Criteria    1.00e-06 *    3.00e-04 *             o    1.20e-03 *             o  ~
  --------------------------------------------------------------------------------------------- ~
      1    -923.39174971   -9.23e+02      6.89e-03      1.27e-03 o    3.23e-02      1.24e-02 o  ~
  ---------------------------------------------------------------------------------------------

	Writing optimization data to binary file.
	Structure for next step:
	Cartesian Geometry (in Angstrom)
	    C     3.8173231910   1.4896274170   0.4666402153
	    C     2.3011906844   1.7602065158   0.5715541683
	    C     1.6898322226   0.5392862126  -0.1126124269
	    C     2.6097071406  -0.0818394977  -0.8961379875
	    C     3.9573872477   0.6192738629  -0.7999481041
	    C     0.2573401361   0.1843644860   0.0466425433
	    C    -0.1615344499  -1.1558890853   0.1927610637
	    C    -1.5158725867  -1.4821851795   0.3490646892
	    C    -2.4765924896  -0.4620912516   0.3700765059
	    C    -2.0863486716   0.8788184142   0.2478267925
	    C    -0.7295651369   1.1933482684   0.0953137984
	    C     2.4122448630  -1.2322936767  -1.8475143766
	    H    -0.4351458621   2.2428987019   0.0006320342
	    H    -2.8398583241   1.6713069559   0.2735077104
	   CL    -4.1654979571  -0.8616179531   0.5635366956
	    H    -1.8243769940  -2.5252368946   0.4650365478
	    H     0.5857247281  -1.9537691751   0.2127324154
	    H     4.1325597450   0.8961865571   1.3439120138
	    H     4.4276608510   2.4078697953   0.4414520870
	    H     4.8062517994  -0.0871118435  -0.7496093079
	    H     4.1157438193   1.2416642037  -1.7052597316
	    H     1.3483904257  -1.4576166942  -2.0183981034
	    H     2.8768944516  -0.9950484561  -2.8226442896
	    H     2.9067975470  -2.1498743882  -1.4756911718
	    H     1.9553478768   1.8893979195   1.6122814286
	    H     2.0251596627   2.6832061438   0.0217647290
			--------------------------
			 OPTKING Finished Execution 
			--------------------------

    Structure for next step:
    Molecular point group: c1
    Full point group: C1

    Geometry (in Angstrom), charge = 0, multiplicity = 1:

    C            3.819883478983     1.485608929591     0.469370889041
    C            2.303750966364     1.756188029484     0.574284842465
    C            1.692392502169     0.535267721471    -0.109881755415
    C            2.612267423785    -0.085857991226    -0.893407319066
    C            3.959947536159     0.615255372107    -0.797217435340
    C            0.259900410019     0.180345993461     0.049373215371
    C           -0.158974177601    -1.159907583099     0.195491736382
    C           -1.513312319754    -1.486203678607     0.351795362503
    C           -2.474032226371    -0.466109746681     0.372807179251
    C           -2.083788406903     0.874799924430     0.250557465352
    C           -0.727004866863     1.189329779897     0.098044470742
    C            2.414805145435    -1.236312174781    -1.844783711927
    H           -0.432585590840     2.238880217448     0.003362706097
    H           -2.837298062360     1.667288469264     0.276238383365
    CL          -4.162937700488    -0.865636449763     0.566267369733
    H           -1.821816728251    -2.529255397762     0.467767221567
    H            0.588285003325    -1.957787676003     0.215463088119
    H            4.135120034216     0.892168067418     1.346642691040
    H            4.430221141349     2.403851311578     0.444182760670
    H            4.808812091276    -0.091130337065    -0.746878638969
    H            4.118304108402     1.237645715361    -1.702529066374
    H            1.350950703976    -1.461635193120    -2.015667439387
    H            2.879454735881    -0.999066953248    -2.819913628731
    H            2.909357831334    -2.153892889914    -1.472960505703
    H            1.957908157387     1.885379433716     1.615012106879
    H            2.027719943629     2.679187661084     0.024495401001


Scratch directory: /scratch1/maxbuskirk/
gradient() will perform analytic gradient computation.

*** tstart() called on skylm007.palmetto.clemson.edu
*** at Wed Feb  9 13:02:28 2022

   => Loading Basis Set <=

    Name: CC-PVDZ
    Role: ORBITAL
    Keyword: BASIS
    atoms 1-12         entry C          line   138 file /home/maxbuskirk/.conda/envs/psifour/share/psi4/basis/cc-pvdz.gbs 
    atoms 13-14, 16-26 entry H          line    22 file /home/maxbuskirk/.conda/envs/psifour/share/psi4/basis/cc-pvdz.gbs 
    atoms 15           entry CL         line   658 file /home/maxbuskirk/.conda/envs/psifour/share/psi4/basis/cc-pvdz.gbs 


         ---------------------------------------------------------
                                   SCF
               by Justin Turney, Rob Parrish, Andy Simmonett
                          and Daniel G. A. Smith
                              RHF Reference
                        1 Threads,  59127 MiB Core
         ---------------------------------------------------------

  ==> Geometry <==

    Molecular point group: c1
    Full point group: C1

    Geometry (in Angstrom), charge = 0, multiplicity = 1:

       Center              X                  Y                   Z               Mass       
    ------------   -----------------  -----------------  -----------------  -----------------
         C            3.819883478983     1.485608929591     0.469370889041    12.000000000000
         C            2.303750966364     1.756188029484     0.574284842465    12.000000000000
         C            1.692392502169     0.535267721471    -0.109881755415    12.000000000000
         C            2.612267423785    -0.085857991226    -0.893407319066    12.000000000000
         C            3.959947536159     0.615255372107    -0.797217435340    12.000000000000
         C            0.259900410019     0.180345993461     0.049373215371    12.000000000000
         C           -0.158974177601    -1.159907583099     0.195491736382    12.000000000000
         C           -1.513312319754    -1.486203678607     0.351795362503    12.000000000000
         C           -2.474032226371    -0.466109746681     0.372807179251    12.000000000000
         C           -2.083788406903     0.874799924430     0.250557465352    12.000000000000
         C           -0.727004866863     1.189329779897     0.098044470742    12.000000000000
         C            2.414805145435    -1.236312174781    -1.844783711927    12.000000000000
         H           -0.432585590840     2.238880217448     0.003362706097     1.007825032230
         H           -2.837298062360     1.667288469264     0.276238383365     1.007825032230
         CL          -4.162937700488    -0.865636449763     0.566267369733    34.968852682000
         H           -1.821816728251    -2.529255397762     0.467767221567     1.007825032230
         H            0.588285003325    -1.957787676003     0.215463088119     1.007825032230
         H            4.135120034216     0.892168067418     1.346642691040     1.007825032230
         H            4.430221141349     2.403851311578     0.444182760670     1.007825032230
         H            4.808812091276    -0.091130337065    -0.746878638969     1.007825032230
         H            4.118304108402     1.237645715361    -1.702529066374     1.007825032230
         H            1.350950703976    -1.461635193120    -2.015667439387     1.007825032230
         H            2.879454735881    -0.999066953248    -2.819913628731     1.007825032230
         H            2.909357831334    -2.153892889914    -1.472960505703     1.007825032230
         H            1.957908157387     1.885379433716     1.615012106879     1.007825032230
         H            2.027719943629     2.679187661084     0.024495401001     1.007825032230

  Running in c1 symmetry.

  Rotational constants: A =      0.06635  B =      0.01041  C =      0.00941 [cm^-1]
  Rotational constants: A =   1989.02347  B =    312.17869  C =    282.15923 [MHz]
  Nuclear repulsion =  811.705605530335106

  Charge       = 0
  Multiplicity = 1
  Electrons    = 102
  Nalpha       = 51
  Nbeta        = 51

  ==> Algorithm <==

  SCF Algorithm Type is DF.
  DIIS enabled.
  MOM disabled.
  Fractional occupation disabled.
  Guess Type is READ.
  Energy threshold   = 1.00e-10
  Density threshold  = 1.00e-10
  Integral threshold = 1.00e-12

  ==> Primary Basis <==

  Basis Set: CC-PVDZ
    Blend: CC-PVDZ
    Number of shells: 119
    Number of basis functions: 251
    Number of Cartesian functions: 264
    Spherical Harmonics?: true
    Max angular momentum: 2

   => Loading Basis Set <=

    Name: (CC-PVDZ AUX)
    Role: JKFIT
    Keyword: DF_BASIS_SCF
    atoms 1-12         entry C          line   121 file /home/maxbuskirk/.conda/envs/psifour/share/psi4/basis/cc-pvdz-jkfit.gbs 
    atoms 13-14, 16-26 entry H          line    51 file /home/maxbuskirk/.conda/envs/psifour/share/psi4/basis/cc-pvdz-jkfit.gbs 
    atoms 15           entry CL         line   667 file /home/maxbuskirk/.conda/envs/psifour/share/psi4/basis/cc-pvdz-jkfit.gbs 

   => Loading Basis Set <=

    Name: CC-PVDZ
    Role: ORBITAL
    Keyword: BASIS
    atoms 1-12         entry C          line   138 file /home/maxbuskirk/.conda/envs/psifour/share/psi4/basis/cc-pvdz.gbs 
    atoms 13-14, 16-26 entry H          line    22 file /home/maxbuskirk/.conda/envs/psifour/share/psi4/basis/cc-pvdz.gbs 
    atoms 15           entry CL         line   658 file /home/maxbuskirk/.conda/envs/psifour/share/psi4/basis/cc-pvdz.gbs 

  Reading orbitals from file /scratch1/maxbuskirk/pCl.mol.747534.180.npy, no projection.

  ==> Integral Setup <==

  DFHelper Memory: AOs need 0.537 GiB; user supplied 43.306 GiB. Using in-core AOs.

  ==> MemDFJK: Density-Fitted J/K Matrices <==

    J tasked:                   Yes
    K tasked:                   Yes
    wK tasked:                   No
    OpenMP threads:               1
    Memory [MiB]:             44345
    Algorithm:                 Core
    Schwarz Cutoff:           1E-12
    Mask sparsity (%):      12.3014
    Fitting Condition:        1E-10

   => Auxiliary Basis Set <=

  Basis Set: (CC-PVDZ AUX)
    Blend: CC-PVDZ-JKFIT
    Number of shells: 441
    Number of basis functions: 1251
    Number of Cartesian functions: 1427
    Spherical Harmonics?: true
    Max angular momentum: 3

  Minimum eigenvalue in the overlap matrix is 3.0361304031E-04.
  Reciprocal condition number of the overlap matrix is 4.7274059824E-05.
    Using symmetric orthogonalization.

  ==> Pre-Iterations <==

  SCF Guess: Orbitals guess was supplied from a previous computation.

   -------------------------------------------------------
    Irrep   Nso     Nmo     Nalpha   Nbeta   Ndocc  Nsocc
   -------------------------------------------------------
     A        251     251      51      51      51       0
   -------------------------------------------------------
    Total     251     251      51      51      51       0
   -------------------------------------------------------

  ==> Iterations <==

                           Total Energy        Delta E     RMS |[F,P]|

   @DF-RHF iter   0:  -921.50511549529847   -9.21505e+02   2.21080e-04 
   @DF-RHF iter   1:  -921.51794382146852   -1.28283e-02   3.39950e-05 DIIS
   @DF-RHF iter   2:  -921.51800275887945   -5.89374e-05   1.42048e-05 DIIS
   @DF-RHF iter   3:  -921.51801179982442   -9.04094e-06   5.40418e-06 DIIS
   @DF-RHF iter   4:  -921.51801396357064   -2.16375e-06   1.67554e-06 DIIS
   @DF-RHF iter   5:  -921.51801414492013   -1.81349e-07   7.86198e-07 DIIS
   @DF-RHF iter   6:  -921.51801421345385   -6.85337e-08   3.67260e-07 DIIS
   @DF-RHF iter   7:  -921.51801423469976   -2.12459e-08   1.68237e-07 DIIS
   @DF-RHF iter   8:  -921.51801423985864   -5.15888e-09   7.55725e-08 DIIS
   @DF-RHF iter   9:  -921.51801424076518   -9.06539e-10   2.21241e-08 DIIS
   @DF-RHF iter  10:  -921.51801424082691   -6.17320e-11   8.96029e-09 DIIS
   @DF-RHF iter  11:  -921.51801424083203   -5.11591e-12   2.55266e-09 DIIS
   @DF-RHF iter  12:  -921.51801424083646   -4.43379e-12   7.27313e-10 DIIS
   @DF-RHF iter  13:  -921.51801424083556    9.09495e-13   2.43902e-10 DIIS
   @DF-RHF iter  14:  -921.51801424083567   -1.13687e-13   9.13876e-11 DIIS
  Energy and wave function converged.


  ==> Post-Iterations <==

    Orbital Energies [Eh]
    ---------------------

    Doubly Occupied:                                                      

       1A   -104.831416     2A    -11.305320     3A    -11.258770  
       4A    -11.257011     5A    -11.256896     6A    -11.253290  
       7A    -11.253044     8A    -11.243156     9A    -11.237440  
      10A    -11.236775    11A    -11.235470    12A    -11.235144  
      13A    -11.231991    14A    -10.558183    15A     -8.025823  
      16A     -8.022408    17A     -8.022304    18A     -1.185449  
      19A     -1.149327    20A     -1.110306    21A     -1.026668  
      22A     -1.018195    23A     -1.008501    24A     -0.942587  
      25A     -0.905209    26A     -0.843012    27A     -0.817491  
      28A     -0.785610    29A     -0.724130    30A     -0.659563  
      31A     -0.645438    32A     -0.643521    33A     -0.640573  
      34A     -0.618822    35A     -0.595304    36A     -0.575551  
      37A     -0.569463    38A     -0.546511    39A     -0.541351  
      40A     -0.535624    41A     -0.518357    42A     -0.503208  
      43A     -0.486146    44A     -0.482383    45A     -0.481050  
      46A     -0.467543    47A     -0.457706    48A     -0.449808  
      49A     -0.362737    50A     -0.346285    51A     -0.297391  

    Virtual:                                                              

      52A      0.104648    53A      0.120568    54A      0.170151  
      55A      0.183749    56A      0.190152    57A      0.195213  
      58A      0.211489    59A      0.225573    60A      0.228092  
      61A      0.246542    62A      0.253125    63A      0.260473  
      64A      0.265438    65A      0.281192    66A      0.284014  
      67A      0.297513    68A      0.312283    69A      0.326640  
      70A      0.355515    71A      0.382027    72A      0.387804  
      73A      0.398556    74A      0.424720    75A      0.427832  
      76A      0.443020    77A      0.474531    78A      0.488074  
      79A      0.508664    80A      0.568817    81A      0.589218  
      82A      0.596940    83A      0.616409    84A      0.624472  
      85A      0.636628    86A      0.651541    87A      0.664156  
      88A      0.670127    89A      0.677883    90A      0.687386  
      91A      0.702273    92A      0.710459    93A      0.714231  
      94A      0.719628    95A      0.726300    96A      0.735130  
      97A      0.740088    98A      0.752249    99A      0.760812  
     100A      0.781813   101A      0.783129   102A      0.795769  
     103A      0.820997   104A      0.826723   105A      0.832507  
     106A      0.848666   107A      0.852182   108A      0.854637  
     109A      0.868564   110A      0.874268   111A      0.879186  
     112A      0.882869   113A      0.889864   114A      0.896793  
     115A      0.900666   116A      0.910765   117A      0.913363  
     118A      0.920637   119A      0.922670   120A      0.926331  
     121A      0.938356   122A      0.945519   123A      0.950677  
     124A      0.971186   125A      0.979356   126A      0.983959  
     127A      0.992925   128A      1.005670   129A      1.014659  
     130A      1.030668   131A      1.062829   132A      1.074786  
     133A      1.111597   134A      1.130467   135A      1.138983  
     136A      1.149608   137A      1.163905   138A      1.195765  
     139A      1.198304   140A      1.225948   141A      1.231665  
     142A      1.260656   143A      1.282356   144A      1.282903  
     145A      1.293360   146A      1.316179   147A      1.327343  
     148A      1.343327   149A      1.372010   150A      1.378214  
     151A      1.421663   152A      1.459013   153A      1.469274  
     154A      1.476998   155A      1.481945   156A      1.491615  
     157A      1.506897   158A      1.534449   159A      1.552759  
     160A      1.573123   161A      1.609877   162A      1.623374  
     163A      1.636213   164A      1.647229   165A      1.683990  
     166A      1.699320   167A      1.722290   168A      1.745896  
     169A      1.753526   170A      1.770364   171A      1.798345  
     172A      1.801678   173A      1.807246   174A      1.824818  
     175A      1.835554   176A      1.844143   177A      1.863743  
     178A      1.873610   179A      1.882269   180A      1.893740  
     181A      1.900634   182A      1.913167   183A      1.915380  
     184A      1.922920   185A      1.925042   186A      1.939555  
     187A      1.960773   188A      1.963527   189A      1.972780  
     190A      2.001654   191A      2.012563   192A      2.015976  
     193A      2.025600   194A      2.028552   195A      2.045303  
     196A      2.052945   197A      2.066220   198A      2.070308  
     199A      2.085931   200A      2.095203   201A      2.108860  
     202A      2.111013   203A      2.125268   204A      2.136750  
     205A      2.155997   206A      2.176135   207A      2.186888  
     208A      2.208941   209A      2.231532   210A      2.249768  
     211A      2.261440   212A      2.268607   213A      2.285846  
     214A      2.302955   215A      2.332485   216A      2.362968  
     217A      2.389877   218A      2.396764   219A      2.405113  
     220A      2.420976   221A      2.428280   222A      2.451292  
     223A      2.458083   224A      2.492470   225A      2.515230  
     226A      2.528298   227A      2.543882   228A      2.612146  
     229A      2.654549   230A      2.656044   231A      2.668662  
     232A      2.717318   233A      2.719661   234A      2.746959  
     235A      2.758302   236A      2.767905   237A      2.791153  
     238A      2.816404   239A      2.819605   240A      2.874441  
     241A      2.913825   242A      2.932833   243A      2.943223  
     244A      2.985465   245A      3.003254   246A      3.018313  
     247A      3.051907   248A      3.107203   249A      3.180631  
     250A      3.253373   251A      3.763607  

    Final Occupation by Irrep:
              A 
    DOCC [    51 ]

  @DF-RHF Final Energy:  -921.51801424083567

   => Energetics <=

    Nuclear Repulsion Energy =            811.7056055303351059
    One-Electron Energy =               -2871.6367186320153451
    Two-Electron Energy =                1138.4130988608446842
    Total Energy =                       -921.5180142408355550

Computation Completed


Properties will be evaluated at   0.000000,   0.000000,   0.000000 [a0]

Properties computed using the SCF density matrix

  Nuclear Dipole Moment: [e a0]
     X:    26.4174      Y:     4.3657      Z:    -4.6102

  Electronic Dipole Moment: [e a0]
     X:   -25.4440      Y:    -4.2058      Z:     4.4087

  Dipole Moment: [e a0]
     X:     0.9734      Y:     0.1599      Z:    -0.2015     Total:     1.0069

  Dipole Moment: [D]
     X:     2.4742      Y:     0.4065      Z:    -0.5122     Total:     2.5592


*** tstop() called on skylm007.palmetto.clemson.edu at Wed Feb  9 13:02:40 2022
Module time:
	user time   =      10.79 seconds =       0.18 minutes
	system time =       0.57 seconds =       0.01 minutes
	total time  =         12 seconds =       0.20 minutes
Total time:
	user time   =    9896.39 seconds =     164.94 minutes
	system time =    2720.31 seconds =      45.34 minutes
	total time  =      21553 seconds =     359.22 minutes
 MINTS: Wrapper to libmints.
   by Justin Turney

   Calculation information:
      Number of threads:                 1
      Number of atoms:                  26
[...]
	   59 B(7,8,9)        =    119.382140    -0.000000     0.001370   119.383509
	   60 B(7,8,16)       =    120.660455     0.000001    -0.000632   120.659823
	   61 B(8,7,17)       =    119.176376    -0.000002     0.000595   119.176972
	   62 B(8,9,10)       =    120.623805    -0.000002    -0.007570   120.616235
	   63 B(8,9,15)       =    119.702685     0.000001     0.004532   119.707217
	   64 B(9,8,16)       =    119.953888    -0.000000    -0.000682   119.953206
	   65 B(9,10,11)      =    119.347891     0.000000     0.003098   119.350989
	   66 B(9,10,14)      =    119.950591    -0.000000    -0.002676   119.947915
	   67 B(10,9,15)      =    119.671468     0.000001     0.003073   119.674541
	   68 B(10,11,13)     =    118.963003    -0.000002    -0.001353   118.961650
	   69 B(11,10,14)     =    120.701469     0.000000    -0.000426   120.701043
	   70 B(18,1,19)      =    107.778467     0.000001     0.002626   107.781094
	   71 B(20,5,21)      =    106.653361     0.000000    -0.001392   106.651968
	   72 B(22,12,23)     =    108.304353     0.000000    -0.003664   108.300689
	   73 B(22,12,24)     =    108.369810     0.000000     0.008686   108.378496
	   74 B(23,12,24)     =    106.772053    -0.000000    -0.005557   106.766496
	   75 B(25,2,26)      =    106.963035     0.000000    -0.001892   106.961143
	   76 D(1,2,3,4)      =    -18.274413     0.000000     0.027803   -18.246610
	   77 D(1,2,3,6)      =    164.853425     0.000000    -0.021657   164.831768
	   78 D(1,5,4,3)      =     15.793850    -0.000000     0.026092    15.819942
	   79 D(1,5,4,12)     =   -168.379152    -0.000000     0.033731  -168.345421
	   80 D(2,1,5,4)      =    -26.155488     0.000000    -0.009177   -26.164666
	   81 D(2,1,5,20)     =   -148.124329    -0.000000    -0.018824  -148.143154
	   82 D(2,1,5,21)     =     91.587567    -0.000000    -0.017875    91.569692
	   83 D(2,3,4,5)      =      1.604655    -0.000000    -0.034357     1.570297
	   84 D(2,3,4,12)     =   -173.766627    -0.000000    -0.043437  -173.810064
	   85 D(2,3,6,7)      =   -138.745940     0.000000     0.192019  -138.553921
	   86 D(2,3,6,11)     =     39.335733     0.000000     0.181149    39.516882
	   87 D(3,2,1,5)      =     26.889976    -0.000000    -0.009667    26.880309
	   88 D(3,2,1,18)     =    -89.419980    -0.000000    -0.007443   -89.427423
	   89 D(3,2,1,19)     =    150.675738    -0.000000    -0.007116   150.668622
	   90 D(3,4,5,20)     =    138.027792     0.000000     0.033003   138.060795
	   91 D(3,4,5,21)     =   -103.458995     0.000000     0.035609  -103.423386
	   92 D(3,4,12,22)    =      9.850537     0.000000    -0.222949     9.627588
	   93 D(3,4,12,23)    =    130.436569    -0.000000    -0.232249   130.204321
	   94 D(3,4,12,24)    =   -111.704045    -0.000000    -0.239219  -111.943264
	   95 D(3,6,7,8)      =    179.520396    -0.000000    -0.008128   179.512268
	   96 D(3,6,7,17)     =      0.989909    -0.000000    -0.026133     0.963776
	   97 D(3,6,11,10)    =   -179.648449    -0.000000     0.002219  -179.646229
	   98 D(3,6,11,13)    =      1.002288     0.000000     0.011783     1.014071
	   99 D(4,3,2,25)     =   -140.243148     0.000000     0.015299  -140.227849
	  100 D(4,3,2,26)     =    100.328144     0.000000     0.017062   100.345207
	  101 D(4,3,6,7)      =     44.934054     0.000000     0.133312    45.067366
	  102 D(4,3,6,11)     =   -136.984273     0.000000     0.122442  -136.861830
	  103 D(4,5,1,18)     =     90.057254     0.000000    -0.012761    90.044493
	  104 D(4,5,1,19)     =   -149.881751     0.000000    -0.011849  -149.893600
	  105 D(5,1,2,25)     =    148.655766     0.000000     0.009591   148.665357
	  106 D(5,1,2,26)     =    -91.071645     0.000000     0.010679   -91.060966
	  107 D(5,4,3,6)      =    178.251241     0.000000     0.019079   178.270321
	  108 D(5,4,12,22)    =   -165.136677    -0.000000    -0.232561  -165.369238
	  109 D(5,4,12,23)    =    -44.550645    -0.000000    -0.241860   -44.792505
	  110 D(5,4,12,24)    =     73.308741    -0.000000    -0.248831    73.059910
	  111 D(6,3,2,25)     =     42.884690    -0.000000    -0.034161    42.850529
	  112 D(6,3,2,26)     =    -76.544017    -0.000000    -0.032398   -76.576415
	  113 D(6,3,4,12)     =      2.879960     0.000000     0.009999     2.889959
	  114 D(6,7,8,9)      =     -0.440499     0.000000     0.001241    -0.439258
	  115 D(6,7,8,16)     =   -179.757909    -0.000000    -0.004190  -179.762098
	  116 D(6,11,10,9)    =      0.647517     0.000000     0.010580     0.658097
	  117 D(6,11,10,14)   =   -179.432567     0.000000     0.007243  -179.425324
	  118 D(7,6,11,10)    =     -1.499387    -0.000000    -0.008300    -1.507687
	  119 D(7,6,11,13)    =    179.151349     0.000000     0.001263   179.152613
	  120 D(7,8,9,10)     =     -0.457025    -0.000000     0.000990    -0.456035
	  121 D(7,8,9,15)     =   -179.935545    -0.000000    -0.003462  -179.939007
	  122 D(8,7,6,11)     =      1.394289     0.000000     0.002351     1.396639
	  123 D(8,9,10,11)    =      0.355215    -0.000000    -0.006791     0.348424
	  124 D(8,9,10,14)    =   -179.565312    -0.000000    -0.003481  -179.568794
	  125 D(9,8,7,17)     =    178.094869     0.000000     0.019127   178.113996
	  126 D(9,10,11,13)   =   -179.998560     0.000000     0.001090  -179.997470
	  127 D(10,9,8,16)    =    178.865288     0.000000     0.006382   178.871670
	  128 D(11,6,7,17)    =   -177.136198    -0.000000    -0.015654  -177.151852
	  129 D(11,10,9,15)   =    179.833898    -0.000000    -0.002333   179.831564
	  130 D(12,4,5,20)    =    -46.145210     0.000000     0.040643   -46.104568
	  131 D(12,4,5,21)    =     72.368002     0.000000     0.043249    72.411251
	  132 D(13,11,10,14)  =     -0.078644    -0.000000    -0.002247    -0.080891
	  133 D(14,10,9,15)   =     -0.086630     0.000000     0.000977    -0.085654
	  134 D(15,9,8,16)    =     -0.613232    -0.000000     0.001930    -0.611302
	  135 D(16,8,7,17)    =     -1.222541     0.000000     0.013697    -1.208845
	  136 D(18,1,2,25)    =     32.345810     0.000000     0.011815    32.357626
	  137 D(18,1,2,26)    =    152.618400     0.000000     0.012903   152.631302
	  138 D(18,1,5,20)    =    -31.911587    -0.000000    -0.022408   -31.933995
	  139 D(18,1,5,21)    =   -152.199691    -0.000000    -0.021459  -152.221149
	  140 D(19,1,2,25)    =    -87.558472     0.000000     0.012143   -87.546329
	  141 D(19,1,2,26)    =     32.714117     0.000000     0.013230    32.727348
	  142 D(19,1,5,20)    =     88.149408    -0.000000    -0.021496    88.127911
	  143 D(19,1,5,21)    =    -32.138696    -0.000000    -0.020547   -32.159243
	  144 R(7,12)         =      3.305287    -0.000035     0.001179     3.306467
	 ---------------------------------------------------------------------------
	Successfully symmetrized geometry.

  ==> Convergence Check <==

  Measures of convergence in internal coordinates in au.
  Criteria marked as inactive (o), active & met (*), and active & unmet ( ).
  ---------------------------------------------------------------------------------------------
   Step     Total Energy     Delta E     MAX Force     RMS Force      MAX Disp      RMS Disp   
  ---------------------------------------------------------------------------------------------
    Convergence Criteria    1.00e-06 *    3.00e-04 *             o    1.20e-03 *             o
  ---------------------------------------------------------------------------------------------
      6    -923.39229765   -7.40e-07 *    4.59e-05 *    1.23e-05 o    4.34e-03      1.00e-03 o  ~
  ---------------------------------------------------------------------------------------------


  **** Optimization is complete! (in 6 steps) ****

  ==> Optimization Summary <==

  Measures of convergence in internal coordinates in au.
  --------------------------------------------------------------------------------------------------------------- ~
   Step         Total Energy             Delta E       MAX Force       RMS Force        MAX Disp        RMS Disp  ~
  --------------------------------------------------------------------------------------------------------------- ~
      1    -923.391749710385   -923.391749710385      0.00689132      0.00127306      0.03233226      0.01237046  ~
      2    -923.392239802442     -0.000490092056      0.00188931      0.00030751      0.02019993      0.00616806  ~
      3    -923.392289747772     -0.000049945331      0.00033397      0.00007857      0.00872167      0.00341252  ~
      4    -923.392295475332     -0.000005727559      0.00009364      0.00002915      0.00664609      0.00179967  ~
      5    -923.392296911121     -0.000001435789      0.00010146      0.00002040      0.00566313      0.00147477  ~
      6    -923.392297651089     -0.000000739967      0.00004586      0.00001234      0.00434292      0.00100471  ~
  --------------------------------------------------------------------------------------------------------------- ~

	Writing optimization data to binary file.
	Final energy is   -923.3922976510887
	Final (previous) structure:
	Cartesian Geometry (in Angstrom)
	    C     3.8235473907   1.4726650963   0.4724727936
	    C     2.3057390385   1.7367698145   0.5875868015
	    C     1.6965367853   0.5212660974  -0.1061486676
	    C     2.6147306695  -0.0992176866  -0.8895155117
	    C     3.9650372999   0.5959713999  -0.7909719487
	    C     0.2600383320   0.1751066254   0.0479143397
	    C    -0.1643746420  -1.1600907536   0.2146566058
	    C    -1.5215023098  -1.4792648723   0.3695512383
	    C    -2.4739579051  -0.4515771425   0.3678639066
	    C    -2.0808083534   0.8861910774   0.2228615595
	    C    -0.7207576524   1.1900071287   0.0711712990
	    C     2.4204879360  -1.2480765159  -1.8434172265
	    H    -0.4208126684   2.2366432365  -0.0415361371
	    H    -2.8325829725   1.6798689424   0.2302131765
	   CL    -4.1704369747  -0.8404038032   0.5623196085
	    H    -1.8385435434  -2.5171440489   0.5019935795
	    H     0.5792276422  -1.9618313251   0.2479374713
	    H     4.1532187821   0.8919167994   1.3525656589
	    H     4.4250096457   2.3961187651   0.4338724677
	    H     4.8066721705  -0.1180879118  -0.7288110603
	    H     4.1347175109   1.2090641630  -1.6998911022
	    H     1.3569110499  -1.4822468807  -2.0053698582
	    H     2.8751325786  -1.0039881392  -2.8212977263
	    H     2.9262631728  -2.1605689771  -1.4750357901
	    H     1.9650026398   1.8462595730   1.6322600739
	    H     2.0196079598   2.6661364974   0.0549153513
	Saving final (previous) structure.
	Cleaning optimization helper files.
			--------------------------
			 OPTKING Finished Execution 
			--------------------------

    Final optimized geometry and variables:
    Molecular point group: c1
    Full point group: C1

    Geometry (in Angstrom), charge = 0, multiplicity = 1:

    C            3.823547405760     1.472665102081     0.472472795493
    C            2.305739047530     1.736769821330     0.587586803795
    C            1.696536791974     0.521266099416    -0.106148668006
    C            2.614730679798    -0.099217686983    -0.889515515246
    C            3.965037315458     0.595971402249    -0.790971951830
    C            0.260038333011     0.175106626076     0.047914339889
    C           -0.164374642631    -1.160090758190     0.214656606681
    C           -1.521502315800    -1.479264878092     0.369551239778
    C           -2.473957914822    -0.451577144308     0.367863908083
    C           -2.080808361536     0.886191080908     0.222861560394
    C           -0.720757655240     1.190007133330     0.071171299231
    C            2.420487945465    -1.248076520820    -1.843417233720
    H           -0.420812670019     2.236643245329    -0.041536137311
    H           -2.832582983668     1.679868949026     0.230213177452
    CL          -4.170436991122    -0.840403806480     0.562319610671
    H           -1.838543550655    -2.517144058843     0.501993581515
    H            0.579227644489    -1.961831332824     0.247937472250
    H            4.153218798387     0.891916802860     1.352565664226
    H            4.425009663111     2.396118774560     0.433872469413
    H            4.806672189360    -0.118087912244    -0.728811063169
    H            4.134717527107     1.209064167707    -1.699891108836
    H            1.356911055241    -1.482246886496    -2.005369866118
    H            2.875132589896    -1.003988143135    -2.821297737406
    H            2.926263184337    -2.160568985581    -1.475035795889
    H            1.965002647500     1.846259580261     1.632260080362
    H            2.019607967759     2.666136507886     0.054915351525

	Removing binary optimization data file.
	Cleaning optimization helper files.


Properties will be evaluated at   0.000000,   0.000000,   0.000000 [a0]
OEProp: No title given, name of density matrix used for the following properties is 'SCF density'
  Mulliken Charges: (a.u.)
   Center  Symbol    Alpha    Beta     Spin     Total
       1     C     3.02142  3.02142  0.00000 -0.04284
       2     C     2.99139  2.99139  0.00000  0.01723
       3     C     3.03515  3.03515  0.00000 -0.07029
       4     C     3.11087  3.11087  0.00000 -0.22173
       5     C     2.99309  2.99309  0.00000  0.01383
       6     C     3.04628  3.04628  0.00000 -0.09256
       7     C     2.99845  2.99845  0.00000  0.00309
       8     C     2.95748  2.95748  0.00000  0.08504
       9     C     3.09050  3.09050  0.00000 -0.18099
      10     C     2.95726  2.95726  0.00000  0.08549
      11     C     2.99838  2.99838  0.00000  0.00324
      12     C     2.98880  2.98880  0.00000  0.02240
      13     H     0.49281  0.49281  0.00000  0.01437
      14     H     0.48635  0.48635  0.00000  0.02730
      15    CL     8.53253  8.53253  0.00000 -0.06506
      16     H     0.48612  0.48612  0.00000  0.02775
      17     H     0.49161  0.49161  0.00000  0.01678
      18     H     0.48155  0.48155  0.00000  0.03691
      19     H     0.48679  0.48679  0.00000  0.02643
      20     H     0.48431  0.48431  0.00000  0.03138
      21     H     0.47953  0.47953  0.00000  0.04095
      22     H     0.47549  0.47549  0.00000  0.04903
      23     H     0.47815  0.47815  0.00000  0.04371
      24     H     0.47583  0.47583  0.00000  0.04834
      25     H     0.48139  0.48139  0.00000  0.03723
      26     H     0.47850  0.47850  0.00000  0.04301

   Total alpha = 51.00000, Total beta = 51.00000, Total charge = -0.00000

    Molecular point group: c1
    Full point group: C1

    Geometry (in Angstrom), charge = 0, multiplicity = 1:

       Center              X                  Y                   Z               Mass       
    ------------   -----------------  -----------------  -----------------  -----------------
         C            3.823547405760     1.472665102081     0.472472795493    12.000000000000
         C            2.305739047530     1.736769821330     0.587586803795    12.000000000000
         C            1.696536791974     0.521266099416    -0.106148668006    12.000000000000
         C            2.614730679798    -0.099217686983    -0.889515515246    12.000000000000
         C            3.965037315458     0.595971402249    -0.790971951830    12.000000000000
         C            0.260038333011     0.175106626076     0.047914339889    12.000000000000
         C           -0.164374642631    -1.160090758190     0.214656606681    12.000000000000
         C           -1.521502315800    -1.479264878092     0.369551239778    12.000000000000
         C           -2.473957914822    -0.451577144308     0.367863908083    12.000000000000
         C           -2.080808361536     0.886191080908     0.222861560394    12.000000000000
         C           -0.720757655240     1.190007133330     0.071171299231    12.000000000000
         C            2.420487945465    -1.248076520820    -1.843417233720    12.000000000000
         H           -0.420812670019     2.236643245329    -0.041536137311     1.007825032230
         H           -2.832582983668     1.679868949026     0.230213177452     1.007825032230
         CL          -4.170436991122    -0.840403806480     0.562319610671    34.968852682000
         H           -1.838543550655    -2.517144058843     0.501993581515     1.007825032230
         H            0.579227644489    -1.961831332824     0.247937472250     1.007825032230
         H            4.153218798387     0.891916802860     1.352565664226     1.007825032230
         H            4.425009663111     2.396118774560     0.433872469413     1.007825032230
         H            4.806672189360    -0.118087912244    -0.728811063169     1.007825032230
         H            4.134717527107     1.209064167707    -1.699891108836     1.007825032230
         H            1.356911055241    -1.482246886496    -2.005369866118     1.007825032230
         H            2.875132589896    -1.003988143135    -2.821297737406     1.007825032230
         H            2.926263184337    -2.160568985581    -1.475035795889     1.007825032230
         H            1.965002647500     1.846259580261     1.632260080362     1.007825032230
         H            2.019607967759     2.666136507886     0.054915351525     1.007825032230



  Variable Map:
  ----------------------------------------------------------------------------
  "CC D1 DIAGNOSTIC"                      =>       0.029764582904
  "CC D2 DIAGNOSTIC"                      =>       0.195634727695
  "CC NEW D1 DIAGNOSTIC"                  =>       0.029764582904
  "CC T1 DIAGNOSTIC"                      =>       0.007973058345
  "CCSD CORRELATION ENERGY"               =>      -1.873220312564
  "CCSD DOUBLES ENERGY"                   =>      -1.873220312564
  "CCSD ITERATIONS"                       =>      15.000000000000
  "CCSD OPPOSITE-SPIN CORRELATION ENERGY" =>      -1.452055810809
  "CCSD SAME-SPIN CORRELATION ENERGY"     =>      -0.421164501755
  "CCSD SINGLES ENERGY"                   =>       0.000000000000
  "CCSD TOTAL ENERGY"                     =>    -923.392297651089
  "CURRENT CORRELATION ENERGY"            =>      -1.873220312564
  "CURRENT DIPOLE X"                      =>       2.496839556442
  "CURRENT DIPOLE Y"                      =>       0.397730178987
  "CURRENT DIPOLE Z"                      =>      -0.511751899418
  "CURRENT ENERGY"                        =>    -923.392297651089
  "CURRENT REFERENCE ENERGY"              =>    -921.518270553950
  "HF TOTAL ENERGY"                       =>    -921.518270553950
  "LCCSD (+LMP2) TOTAL ENERGY"            =>    -923.392297651089
  "MP2 CORRELATION ENERGY"                =>      -1.783527550101
  "MP2 DOUBLES ENERGY"                    =>      -1.783527550101
  "MP2 OPPOSITE-SPIN CORRELATION ENERGY"  =>      -1.315741787295
  "MP2 SAME-SPIN CORRELATION ENERGY"      =>      -0.467785762806
  "MP2 SINGLES ENERGY"                    =>      -0.000000000000
  "MP2 TOTAL ENERGY"                      =>    -923.302604888625
  "NUCLEAR REPULSION ENERGY"              =>     811.457876207294
  "ONE-ELECTRON ENERGY"                   =>   -2871.149318537817
  "OPTIMIZATION ITERATIONS"               =>       6.000000000000
  "PCM POLARIZATION ENERGY"               =>       0.000000000000
  "PE ENERGY"                             =>       0.000000000000
  "SCF DIPOLE X"                          =>       2.496839556442
  "SCF DIPOLE Y"                          =>       0.397730178987
  "SCF DIPOLE Z"                          =>      -0.511751899418
  "SCF ITERATION ENERGY"                  =>    -921.518270553950
  "SCF ITERATIONS"                        =>      13.000000000000
  "SCF TOTAL ENERGY"                      =>    -921.518270553950
  "TWO-ELECTRON ENERGY"                   =>    1138.173171776573



    Psi4 stopped on: Thursday, 10 February 2022 07:29PM
    Psi4 wall time for execution: 1 day, 12:25:45.82

*** Psi4 exiting successfully. Buy a developer a beer!
