
    -----------------------------------------------------------------------
          Psi4: An Open-Source Ab Initio Electronic Structure Package
                               Psi4 1.4 release

                         Git: Rev {HEAD} 9485035 


    D. G. A. Smith, L. A. Burns, A. C. Simmonett, R. M. Parrish,
    M. C. Schieber, R. Galvelis, P. Kraus, H. Kruse, R. Di Remigio,
    A. Alenaizan, A. M. James, S. Lehtola, J. P. Misiewicz, M. Scheurer,
    R. A. Shaw, J. B. Schriber, Y. Xie, Z. L. Glick, D. A. Sirianni,
    J. S. O'Brien, J. M. Waldrop, A. Kumar, E. G. Hohenstein,
    B. P. Pritchard, B. R. Brooks, H. F. Schaefer III, A. Yu. Sokolov,
    K. Patkowski, A. E. DePrince III, U. Bozkaya, R. A. King,
    F. A. Evangelista, J. M. Turney, T. D. Crawford, C. D. Sherrill,
    J. Chem. Phys. 152(18) 184108 (2020). https://doi.org/10.1063/5.0006002

                            Additional Code Authors
    E. T. Seidl, C. L. Janssen, E. F. Valeev, M. L. Leininger,
    J. F. Gonthier, R. M. Richard, H. R. McAlexander, M. Saitow, X. Wang,
    P. Verma, and M. H. Lechner

             Previous Authors, Complete List of Code Contributors,
                       and Citations for Specific Modules
    https://github.com/psi4/psi4/blob/master/codemeta.json
    https://github.com/psi4/psi4/graphs/contributors
    http://psicode.org/psi4manual/master/introduction.html#citing-psifour

    -----------------------------------------------------------------------


    Psi4 started on: Friday, 26 November 2021 12:14AM

    Process ID: 2754371
    Host:       skystd18.palmetto.clemson.edu
    PSIDATADIR: /home/maxbuskirk/.conda/envs/psifour/share/psi4
    Memory:     500.0 MiB
    Threads:    1
    
  ==> Input File <==

--------------------------------------------------------------------------
molecule mol {
0 1
 C     0.355130     0.111221    -1.467412
 C    -0.000000    -0.000000     0.000000
 C     0.828100     0.881905     0.953535
 C     2.091555     0.051810     1.254924
 C     2.370953    -0.722993    -0.049363
 C     0.983556    -0.988346    -0.633510
 C    -1.373576    -0.413221     0.414448
 C    -1.542792    -1.321567     1.480545
 C    -2.825059    -1.692334     1.911870
 C    -3.961673    -1.159299     1.279913
 C    -3.805653    -0.253936     0.218219
 C    -2.519836     0.117392    -0.208007
 H    -2.398432     0.829298    -1.030811
 H    -4.686419     0.165723    -0.277661
 O    -5.224199    -1.526822     1.698665
 H    -2.939181    -2.402495     2.736730
 H    -0.656700    -1.746978     1.964470
 H     0.659437    -2.015061    -0.827996
 H    -0.405740    -0.188168    -2.193765
 H     0.996446     0.943276    -1.777222
 H     2.921789    -1.659184     0.134099
 H     2.979683    -0.115336    -0.742780
 H     1.856488    -0.672951     2.054626
 H     2.945544     0.661232     1.596113
 H     0.256631     1.122533     1.863868
 H     1.092347     1.837771     0.466059
 C    -6.184001    -0.867876     0.921124
 H    -7.180299    -1.157899     1.251575
 H    -6.063944     0.208814     1.031793
 H    -6.054349    -1.141975    -0.124811
}

set scf_type df
set basis cc-pVTZ
set reference rhf

mol.update_geometry()
mol.symmetrize(1e-3)

e, wfn = optimize('mp2', return_wfn=True)
oeprop(wfn, "MULLIKEN_CHARGES")
mol.print_out()
print_variables()
--------------------------------------------------------------------------

Scratch directory: /local_scratch/pbs.4080546.pbs02/
gradient() will perform analytic gradient computation.

*** tstart() called on skystd18.palmetto.clemson.edu
*** at Fri Nov 26 00:14:30 2021

   => Loading Basis Set <=

    Name: CC-PVTZ
    Role: ORBITAL
    Keyword: BASIS
    atoms 1-12, 27            entry C          line   186 file /home/maxbuskirk/.conda/envs/psifour/share/psi4/basis/cc-pvtz.gbs 
    atoms 13-14, 16-26, 28-30 entry H          line    23 file /home/maxbuskirk/.conda/envs/psifour/share/psi4/basis/cc-pvtz.gbs 
    atoms 15                  entry O          line   262 file /home/maxbuskirk/.conda/envs/psifour/share/psi4/basis/cc-pvtz.gbs 


         ---------------------------------------------------------
                                   SCF
               by Justin Turney, Rob Parrish, Andy Simmonett
                          and Daniel G. A. Smith
                              RHF Reference
                        1 Threads,    500 MiB Core
         ---------------------------------------------------------

  ==> Geometry <==

    Molecular point group: c1
    Full point group: C1

    Geometry (in Angstrom), charge = 0, multiplicity = 1:

       Center              X                  Y                   Z               Mass       
    ------------   -----------------  -----------------  -----------------  -----------------
         C            1.882703824103     0.668744759916    -2.032251349099    12.000000000000
         C            1.527573824103     0.557523759916    -0.564839349099    12.000000000000
         C            2.355673824103     1.439428759916     0.388695650901    12.000000000000
         C            3.619128824103     0.609333759916     0.690084650901    12.000000000000
         C            3.898526824103    -0.165469240084    -0.614202349099    12.000000000000
         C            2.511129824103    -0.430822240084    -1.198349349099    12.000000000000
         C            0.153997824103     0.144302759916    -0.150391349099    12.000000000000
         C           -0.015218175897    -0.764043240084     0.915705650901    12.000000000000
         C           -1.297485175897    -1.134810240084     1.347030650901    12.000000000000
         C           -2.434099175897    -0.601775240084     0.715073650901    12.000000000000
         C           -2.278079175897     0.303587759916    -0.346620349099    12.000000000000
         C           -0.992262175897     0.674915759916    -0.772846349099    12.000000000000
         H           -0.870858175897     1.386821759916    -1.595650349099     1.007825032230
         H           -3.158845175897     0.723246759916    -0.842500349099     1.007825032230
         O           -3.696625175897    -0.969298240084     1.133825650901    15.994914619570
         H           -1.411607175897    -1.844971240084     2.171890650901     1.007825032230
         H            0.870873824103    -1.189454240084     1.399630650901     1.007825032230
         H            2.187010824103    -1.457537240084    -1.392835349099     1.007825032230
         H            1.121833824103     0.369355759916    -2.758604349099     1.007825032230
         H            2.524019824103     1.500799759916    -2.342061349099     1.007825032230
         H            4.449362824103    -1.101660240084    -0.430740349099     1.007825032230
         H            4.507256824103     0.442187759916    -1.307619349099     1.007825032230
         H            3.384061824103    -0.115427240084     1.489786650901     1.007825032230
         H            4.473117824103     1.218755759916     1.031273650901     1.007825032230
         H            1.784204824103     1.680056759916     1.299028650901     1.007825032230
         H            2.619920824103     2.395294759916    -0.098780349099     1.007825032230
         C           -4.656427175897    -0.310352240084     0.356284650901    12.000000000000
         H           -5.652725175897    -0.600375240084     0.686735650901     1.007825032230
         H           -4.536370175897     0.766337759916     0.466953650901     1.007825032230
         H           -4.526775175897    -0.584451240084    -0.689650349099     1.007825032230

  Running in c1 symmetry.

  Rotational constants: A =      0.06986  B =      0.01117  C =      0.01049 [cm^-1]
  Rotational constants: A =   2094.25887  B =    334.79267  C =    314.40141 [MHz]
  Nuclear repulsion =  862.218940092971707

  Charge       = 0
  Multiplicity = 1
  Electrons    = 102
  Nalpha       = 51
  Nbeta        = 51

  ==> Algorithm <==

  SCF Algorithm Type is DF.
  DIIS enabled.
  MOM disabled.
  Fractional occupation disabled.
  Guess Type is SAD.
  Energy threshold   = 1.00e-10
  Density threshold  = 1.00e-10
  Integral threshold = 1.00e-12

  ==> Primary Basis <==

  Basis Set: CC-PVTZ
    Blend: CC-PVTZ
    Number of shells: 236
    Number of basis functions: 644
    Number of Cartesian functions: 730
    Spherical Harmonics?: true
    Max angular momentum: 3

   => Loading Basis Set <=

    Name: (CC-PVTZ AUX)
    Role: JKFIT
    Keyword: DF_BASIS_SCF
    atoms 1-12, 27            entry C          line   125 file /home/maxbuskirk/.conda/envs/psifour/share/psi4/basis/cc-pvtz-jkfit.gbs 
    atoms 13-14, 16-26, 28-30 entry H          line    51 file /home/maxbuskirk/.conda/envs/psifour/share/psi4/basis/cc-pvtz-jkfit.gbs 
    atoms 15                  entry O          line   229 file /home/maxbuskirk/.conda/envs/psifour/share/psi4/basis/cc-pvtz-jkfit.gbs 

  ==> Integral Setup <==

  ==> DiskDFJK: Density-Fitted J/K Matrices <==

    J tasked:                  Yes
    K tasked:                  Yes
    wK tasked:                  No
    OpenMP threads:              1
    Integrals threads:           1
    Memory [MiB]:              375
    Algorithm:                Disk
    Integral Cache:           NONE
    Schwarz Cutoff:          1E-12
    Fitting Condition:       1E-10

   => Auxiliary Basis Set <=

  Basis Set: (CC-PVTZ AUX)
    Blend: CC-PVTZ-JKFIT
    Number of shells: 510
    Number of basis functions: 1586
    Number of Cartesian functions: 1904
    Spherical Harmonics?: true
    Max angular momentum: 4

  Minimum eigenvalue in the overlap matrix is 3.2350448566E-05.
  Reciprocal condition number of the overlap matrix is 3.3676454368E-06.
    Using symmetric orthogonalization.

  ==> Pre-Iterations <==

  SCF Guess: Superposition of Atomic Densities via on-the-fly atomic UHF (no occupation information).

   -------------------------
    Irrep   Nso     Nmo    
   -------------------------
     A        644     644 
   -------------------------
    Total     644     644
   -------------------------

  ==> Iterations <==

                           Total Energy        Delta E     RMS |[F,P]|

   @DF-RHF iter SAD:  -576.67231887649916   -5.76672e+02   0.00000e+00 
   @DF-RHF iter   1:  -576.24314713540616    4.29172e-01   1.14028e-03 DIIS
   @DF-RHF iter   2:  -576.52519229883319   -2.82045e-01   5.40933e-04 DIIS
   @DF-RHF iter   3:  -576.58601959548969   -6.08273e-02   1.41150e-04 DIIS
   @DF-RHF iter   4:  -576.59157956991464   -5.55997e-03   5.62573e-05 DIIS
   @DF-RHF iter   5:  -576.59234085820822   -7.61288e-04   1.18129e-05 DIIS
   @DF-RHF iter   6:  -576.59238444006246   -4.35819e-05   4.01098e-06 DIIS
   @DF-RHF iter   7:  -576.59238951769089   -5.07763e-06   1.14571e-06 DIIS
   @DF-RHF iter   8:  -576.59239014817899   -6.30488e-07   3.97161e-07 DIIS
   @DF-RHF iter   9:  -576.59239024440467   -9.62257e-08   1.60115e-07 DIIS
   @DF-RHF iter  10:  -576.59239026190437   -1.74997e-08   7.28781e-08 DIIS
   @DF-RHF iter  11:  -576.59239026733076   -5.42639e-09   3.73944e-08 DIIS
   @DF-RHF iter  12:  -576.59239026868681   -1.35606e-09   1.82110e-08 DIIS
   @DF-RHF iter  13:  -576.59239026905743   -3.70619e-10   5.40546e-09 DIIS
   @DF-RHF iter  14:  -576.59239026908756   -3.01270e-11   1.78235e-09 DIIS
   @DF-RHF iter  15:  -576.59239026908722    3.41061e-13   5.57413e-10 DIIS
   @DF-RHF iter  16:  -576.59239026908892   -1.70530e-12   2.47110e-10 DIIS
   @DF-RHF iter  17:  -576.59239026908483    4.09273e-12   1.38767e-10 DIIS
   @DF-RHF iter  18:  -576.59239026909063   -5.79803e-12   6.98903e-11 DIIS
  Energy and wave function converged.


  ==> Post-Iterations <==

    Orbital Energies [Eh]
    ---------------------

    Doubly Occupied:                                                      

       1A    -20.583664     2A    -11.297530     3A    -11.274767  
       4A    -11.237889     5A    -11.236714     6A    -11.233783  
       7A    -11.232579     8A    -11.232290     9A    -11.229317  
      10A    -11.225879    11A    -11.224529    12A    -11.221656  
      13A    -11.221023    14A    -11.220289    15A     -1.411331  
      16A     -1.177523    17A     -1.132175    18A     -1.033281  
      19A     -1.013262    20A     -1.008145    21A     -0.955801  
      22A     -0.935985    23A     -0.844964    24A     -0.817880  
      25A     -0.808078    26A     -0.771435    27A     -0.736916  
      28A     -0.712546    29A     -0.675827    30A     -0.662035  
      31A     -0.659514    32A     -0.629818    33A     -0.621956  
      34A     -0.593201    35A     -0.584947    36A     -0.573103  
      37A     -0.566381    38A     -0.561631    39A     -0.540192  
      40A     -0.521533    41A     -0.514410    42A     -0.481447  
      43A     -0.478962    44A     -0.477851    45A     -0.469462  
      46A     -0.466590    47A     -0.452655    48A     -0.404942  
      49A     -0.383464    50A     -0.335443    51A     -0.300528  

    Virtual:                                                              

      52A      0.119954    53A      0.138829    54A      0.143574  
      55A      0.146117    56A      0.158142    57A      0.166004  
      58A      0.174620    59A      0.184228    60A      0.186943  
      61A      0.199838    62A      0.206630    63A      0.213188  
      64A      0.217859    65A      0.223636    66A      0.228160  
      67A      0.238100    68A      0.256921    69A      0.265969  
      70A      0.273472    71A      0.283536    72A      0.290727  
      73A      0.308434    74A      0.321290    75A      0.336399  
      76A      0.347389    77A      0.357829    78A      0.372834  
      79A      0.377266    80A      0.388335    81A      0.393701  
      82A      0.408604    83A      0.419580    84A      0.424998  
      85A      0.433235    86A      0.440060    87A      0.451293  
      88A      0.463475    89A      0.466018    90A      0.473932  
      91A      0.485902    92A      0.494090    93A      0.502571  
      94A      0.508472    95A      0.511630    96A      0.527113  
      97A      0.532521    98A      0.543413    99A      0.547174  
     100A      0.559763   101A      0.568434   102A      0.575795  
     103A      0.578937   104A      0.583459   105A      0.591695  
     106A      0.595629   107A      0.598824   108A      0.601042  
     109A      0.608709   110A      0.612395   111A      0.617265  
     112A      0.618710   113A      0.623577   114A      0.632688  
     115A      0.634991   116A      0.643376   117A      0.643777  
     118A      0.646792   119A      0.654621   120A      0.655850  
     121A      0.657241   122A      0.665879   123A      0.671221  
     124A      0.677041   125A      0.688154   126A      0.695347  
     127A      0.699560   128A      0.707909   129A      0.723746  
     130A      0.725031   131A      0.730004   132A      0.736103  
     133A      0.747802   134A      0.757265   135A      0.769898  
     136A      0.779863   137A      0.822735   138A      0.827369  
     139A      0.840006   140A      0.847382   141A      0.852650  
     142A      0.859625   143A      0.871407   144A      0.881700  
     145A      0.894087   146A      0.911517   147A      0.913710  
     148A      0.919302   149A      0.929321   150A      0.941275  
     151A      0.963132   152A      0.975205   153A      0.978101  
     154A      0.998203   155A      1.005975   156A      1.009614  
     157A      1.017567   158A      1.020219   159A      1.030352  
     160A      1.033117   161A      1.040214   162A      1.045311  
     163A      1.058944   164A      1.061792   165A      1.083122  
     166A      1.087549   167A      1.096870   168A      1.099851  
     169A      1.120620   170A      1.130347   171A      1.145076  
     172A      1.152329   173A      1.166958   174A      1.169306  
     175A      1.184590   176A      1.189730   177A      1.196973  
     178A      1.200996   179A      1.210063   180A      1.221547  
     181A      1.222608   182A      1.226855   183A      1.232743  
     184A      1.241960   185A      1.255057   186A      1.265637  
     187A      1.277818   188A      1.286562   189A      1.287193  
     190A      1.299994   191A      1.309544   192A      1.322179  
     193A      1.328604   194A      1.334604   195A      1.343686  
     196A      1.346617   197A      1.356300   198A      1.363447  
     199A      1.368965   200A      1.382770   201A      1.391794  
     202A      1.405046   203A      1.415466   204A      1.426048  
     205A      1.426812   206A      1.436381   207A      1.449691  
     208A      1.456450   209A      1.460547   210A      1.469906  
     211A      1.472597   212A      1.481182   213A      1.487602  
     214A      1.505396   215A      1.509828   216A      1.514662  
     217A      1.523999   218A      1.529198   219A      1.533477  
     220A      1.541791   221A      1.550629   222A      1.565864  
     223A      1.569491   224A      1.576266   225A      1.580594  
     226A      1.583022   227A      1.590260   228A      1.605417  
     229A      1.613039   230A      1.622623   231A      1.630368  
     232A      1.638503   233A      1.651054   234A      1.671603  
     235A      1.673523   236A      1.688638   237A      1.694062  
     238A      1.706555   239A      1.712886   240A      1.718901  
     241A      1.728971   242A      1.740988   243A      1.748783  
     244A      1.749634   245A      1.762717   246A      1.776550  
     247A      1.793061   248A      1.798223   249A      1.810167  
     250A      1.832904   251A      1.850421   252A      1.876607  
     253A      1.882828   254A      1.903797   255A      1.915779  
     256A      1.929522   257A      1.945958   258A      1.977256  
     259A      1.997287   260A      2.006418   261A      2.016802  
     262A      2.036854   263A      2.049055   264A      2.067646  
     265A      2.126862   266A      2.165491   267A      2.181451  
     268A      2.188504   269A      2.232888   270A      2.261389  
     271A      2.327896   272A      2.364987   273A      2.373324  
     274A      2.377734   275A      2.434839   276A      2.460961  
     277A      2.476066   278A      2.511063   279A      2.551614  
     280A      2.556479   281A      2.562546   282A      2.577083  
     283A      2.597758   284A      2.606387   285A      2.612106  
     286A      2.635417   287A      2.646389   288A      2.669011  
     289A      2.673696   290A      2.699558   291A      2.703023  
     292A      2.709323   293A      2.725724   294A      2.743772  
     295A      2.754193   296A      2.764090   297A      2.784297  
     298A      2.797575   299A      2.803383   300A      2.818463  
     301A      2.830861   302A      2.832882   303A      2.849639  
     304A      2.853760   305A      2.864700   306A      2.868245  
     307A      2.871995   308A      2.884515   309A      2.896279  
     310A      2.904090   311A      2.920212   312A      2.925810  
     313A      2.931102   314A      2.941011   315A      2.948769  
     316A      2.965514   317A      2.971524   318A      2.984315  
     319A      2.990580   320A      3.005619   321A      3.014386  
     322A      3.018858   323A      3.023493   324A      3.027740  
     325A      3.033096   326A      3.044706   327A      3.053590  
     328A      3.065318   329A      3.070053   330A      3.078200  
     331A      3.086587   332A      3.089833   333A      3.101837  
     334A      3.107231   335A      3.127755   336A      3.136113  
     337A      3.146366   338A      3.148040   339A      3.163577  
     340A      3.170525   341A      3.176329   342A      3.183455  
     343A      3.202787   344A      3.220508   345A      3.237786  
     346A      3.239603   347A      3.252326   348A      3.254927  
     349A      3.272175   350A      3.276503   351A      3.284824  
     352A      3.292764   353A      3.301314   354A      3.306377  
     355A      3.311257   356A      3.317600   357A      3.332072  
     358A      3.344417   359A      3.348304   360A      3.361456  
     361A      3.363754   362A      3.372261   363A      3.378313  
     364A      3.385615   365A      3.387585   366A      3.393836  
     367A      3.399336   368A      3.405072   369A      3.408928  
     370A      3.416021   371A      3.419811   372A      3.425764  
     373A      3.431581   374A      3.444987   375A      3.447285  
     376A      3.453670   377A      3.464329   378A      3.465764  
     379A      3.473570   380A      3.480378   381A      3.492039  
     382A      3.497025   383A      3.513438   384A      3.515624  
     385A      3.534766   386A      3.536544   387A      3.537860  
     388A      3.553589   389A      3.558344   390A      3.570116  
     391A      3.584064   392A      3.586781   393A      3.595343  
     394A      3.603926   395A      3.613239   396A      3.624736  
     397A      3.627815   398A      3.636076   399A      3.646089  
     400A      3.650710   401A      3.665502   402A      3.670187  
     403A      3.677051   404A      3.681614   405A      3.687777  
     406A      3.693672   407A      3.706761   408A      3.712029  
     409A      3.717755   410A      3.722731   411A      3.727376  
     412A      3.741372   413A      3.743310   414A      3.755796  
     415A      3.761797   416A      3.775457   417A      3.785031  
     418A      3.788896   419A      3.805062   420A      3.808758  
     421A      3.821014   422A      3.821744   423A      3.845220  
     424A      3.857719   425A      3.877861   426A      3.883920  
     427A      3.899458   428A      3.902726   429A      3.908582  
     430A      3.914445   431A      3.923798   432A      3.939577  
     433A      3.944118   434A      3.956772   435A      3.968041  
     436A      3.985129   437A      3.996815   438A      4.001738  
     439A      4.011186   440A      4.015492   441A      4.031644  
     442A      4.038452   443A      4.049902   444A      4.060519  
     445A      4.070145   446A      4.073888   447A      4.082615  
     448A      4.090810   449A      4.102213   450A      4.112371  
     451A      4.122472   452A      4.127530   453A      4.132769  
     454A      4.137698   455A      4.143773   456A      4.153965  
     457A      4.158115   458A      4.162227   459A      4.169776  
     460A      4.179325   461A      4.189403   462A      4.198228  
     463A      4.209284   464A      4.211073   465A      4.216260  
     466A      4.236250   467A      4.236844   468A      4.250194  
     469A      4.262020   470A      4.279924   471A      4.280763  
     472A      4.295401   473A      4.301692   474A      4.309231  
     475A      4.324976   476A      4.328277   477A      4.333220  
     478A      4.354766   479A      4.365699   480A      4.370325  
     481A      4.381551   482A      4.390497   483A      4.393552  
     484A      4.397394   485A      4.407427   486A      4.418777  
     487A      4.434065   488A      4.442570   489A      4.449745  
     490A      4.460549   491A      4.467154   492A      4.476593  
     493A      4.481644   494A      4.484113   495A      4.499549  
     496A      4.507167   497A      4.521527   498A      4.524327  
     499A      4.542702   500A      4.556160   501A      4.565063  
     502A      4.568212   503A      4.581188   504A      4.586007  
     505A      4.598485   506A      4.602476   507A      4.612558  
     508A      4.617932   509A      4.624178   510A      4.627125  
     511A      4.639742   512A      4.648431   513A      4.652652  
     514A      4.668202   515A      4.674584   516A      4.687214  
     517A      4.700672   518A      4.711772   519A      4.715251  
     520A      4.719774   521A      4.746645   522A      4.752350  
     523A      4.767677   524A      4.794161   525A      4.800997  
     526A      4.812695   527A      4.816449   528A      4.827405  
     529A      4.838261   530A      4.873947   531A      4.888155  
     532A      4.892615   533A      4.927073   534A      4.933467  
     535A      4.953161   536A      4.961791   537A      4.991818  
     538A      5.021784   539A      5.025937   540A      5.033931  
     541A      5.046970   542A      5.055543   543A      5.067088  
     544A      5.082616   545A      5.086943   546A      5.103758  
     547A      5.116634   548A      5.135586   549A      5.149183  
     550A      5.158082   551A      5.168015   552A      5.198991  
     553A      5.210465   554A      5.234092   555A      5.241640  
     556A      5.260526   557A      5.279694   558A      5.295018  
     559A      5.297290   560A      5.318350   561A      5.324866  
     562A      5.343819   563A      5.348276   564A      5.362084  
     565A      5.370508   566A      5.380398   567A      5.385060  
     568A      5.393110   569A      5.410497   570A      5.415842  
     571A      5.431466   572A      5.457169   573A      5.462695  
     574A      5.479902   575A      5.484640   576A      5.498236  
     577A      5.515856   578A      5.533933   579A      5.549729  
     580A      5.569476   581A      5.577924   582A      5.584689  
     583A      5.608281   584A      5.616915   585A      5.633604  
     586A      5.659010   587A      5.666824   588A      5.690904  
     589A      5.716356   590A      5.722955   591A      5.751900  
     592A      5.782976   593A      5.797215   594A      5.825382  
     595A      5.838326   596A      5.841322   597A      5.870295  
     598A      5.900157   599A      5.919964   600A      5.971706  
     601A      5.983423   602A      6.000233   603A      6.048914  
     604A      6.071675   605A      6.110757   606A      6.143584  
     607A      6.178266   608A      6.219278   609A      6.230130  
     610A      6.260174   611A      6.271236   612A      6.340719  
     613A      6.363097   614A      6.382724   615A      6.390639  
     616A      6.398266   617A      6.428902   618A      6.432848  
     619A      6.437619   620A      6.524976   621A      6.628181  
     622A      6.777341   623A      6.789900   624A      7.026791  
     625A      7.271723   626A      7.309054   627A      7.383850  
     628A      7.431552   629A      7.808439   630A      7.928112  
     631A      9.574496   632A     11.944932   633A     12.117569  
     634A     12.457856   635A     12.567403   636A     12.822134  
     637A     13.192946   638A     13.308815   639A     13.456526  
     640A     13.758274   641A     13.830473   642A     14.015205  
     643A     14.470492   644A     15.943960  

    Final Occupation by Irrep:
              A 
    DOCC [    51 ]

  @DF-RHF Final Energy:  -576.59239026909063

   => Energetics <=

    Nuclear Repulsion Energy =            862.2189400929717067
    One-Electron Energy =               -2493.6484135241271360
    Two-Electron Energy =                1054.8370831620648005
    Total Energy =                       -576.5923902690906289

Computation Completed


Properties will be evaluated at   0.000000,   0.000000,   0.000000 [a0]

Properties computed using the SCF density matrix

  Nuclear Dipole Moment: [e a0]
     X:     7.2612      Y:     3.3599      Z:    -2.7255

  Electronic Dipole Moment: [e a0]
     X:    -7.3227      Y:    -3.0549      Z:     2.3791

  Dipole Moment: [e a0]
     X:    -0.0615      Y:     0.3050      Z:    -0.3465     Total:     0.4657

  Dipole Moment: [D]
     X:    -0.1563      Y:     0.7753      Z:    -0.8806     Total:     1.1836


*** tstop() called on skystd18.palmetto.clemson.edu at Fri Nov 26 00:17:06 2021
Module time:
	user time   =     143.97 seconds =       2.40 minutes
	system time =      12.37 seconds =       0.21 minutes
	total time  =        156 seconds =       2.60 minutes
Total time:
	user time   =     143.97 seconds =       2.40 minutes
	system time =      12.37 seconds =       0.21 minutes
	total time  =        156 seconds =       2.60 minutes

*** tstart() called on skystd18.palmetto.clemson.edu
*** at Fri Nov 26 00:17:06 2021


  //>>>>>>>>>>>>>>>>>>>>>>>>>>>>>>>>>>>//
  //               DFMP2               //
  //<<<<<<<<<<<<<<<<<<<<<<<<<<<<<<<<<<<//

   => Loading Basis Set <=

    Name: (CC-PVTZ AUX)
    Role: RIFIT
    Keyword: DF_BASIS_MP2
    atoms 1-12, 27            entry C          line   209 file /home/maxbuskirk/.conda/envs/psifour/share/psi4/basis/cc-pvtz-ri.gbs 
    atoms 13-14, 16-26, 28-30 entry H          line    19 file /home/maxbuskirk/.conda/envs/psifour/share/psi4/basis/cc-pvtz-ri.gbs 
    atoms 15                  entry O          line   305 file /home/maxbuskirk/.conda/envs/psifour/share/psi4/basis/cc-pvtz-ri.gbs 

	 --------------------------------------------------------
	                          DF-MP2                         
	      2nd-Order Density-Fitted Moller-Plesset Theory     
	              RMP2 Wavefunction,   1 Threads             
	                                                         
	        Rob Parrish, Justin Turney, Andy Simmonett,      
	           Ed Hohenstein, and C. David Sherrill          
	 --------------------------------------------------------

   => Auxiliary Basis Set <=

  Basis Set: (CC-PVTZ AUX)
    Blend: CC-PVTZ-RI
    Number of shells: 482
    Number of basis functions: 1614
    Number of Cartesian functions: 1974
    Spherical Harmonics?: true
    Max angular momentum: 4

	 --------------------------------------------------------
	                 NBF =   644, NAUX =  1614
	 --------------------------------------------------------
	   CLASS    FOCC     OCC    AOCC    AVIR     VIR    FVIR
	   PAIRS       0      51      51     593     593       0
	 --------------------------------------------------------


         ------------------------------------------------------------
                                     CPHF                           
                                  Rob Parrish                       
         ------------------------------------------------------------

  ==> Geometry <==

    Molecular point group: c1
    Full point group: C1

    Geometry (in Angstrom), charge = 0, multiplicity = 1:

       Center              X                  Y                   Z               Mass       
    ------------   -----------------  -----------------  -----------------  -----------------
         C            1.882703824103     0.668744759916    -2.032251349099    12.000000000000
         C            1.527573824103     0.557523759916    -0.564839349099    12.000000000000
         C            2.355673824103     1.439428759916     0.388695650901    12.000000000000
         C            3.619128824103     0.609333759916     0.690084650901    12.000000000000
         C            3.898526824103    -0.165469240084    -0.614202349099    12.000000000000
         C            2.511129824103    -0.430822240084    -1.198349349099    12.000000000000
         C            0.153997824103     0.144302759916    -0.150391349099    12.000000000000
         C           -0.015218175897    -0.764043240084     0.915705650901    12.000000000000
         C           -1.297485175897    -1.134810240084     1.347030650901    12.000000000000
         C           -2.434099175897    -0.601775240084     0.715073650901    12.000000000000
         C           -2.278079175897     0.303587759916    -0.346620349099    12.000000000000
         C           -0.992262175897     0.674915759916    -0.772846349099    12.000000000000
         H           -0.870858175897     1.386821759916    -1.595650349099     1.007825032230
         H           -3.158845175897     0.723246759916    -0.842500349099     1.007825032230
         O           -3.696625175897    -0.969298240084     1.133825650901    15.994914619570
         H           -1.411607175897    -1.844971240084     2.171890650901     1.007825032230
         H            0.870873824103    -1.189454240084     1.399630650901     1.007825032230
         H            2.187010824103    -1.457537240084    -1.392835349099     1.007825032230
         H            1.121833824103     0.369355759916    -2.758604349099     1.007825032230
         H            2.524019824103     1.500799759916    -2.342061349099     1.007825032230
         H            4.449362824103    -1.101660240084    -0.430740349099     1.007825032230
         H            4.507256824103     0.442187759916    -1.307619349099     1.007825032230
         H            3.384061824103    -0.115427240084     1.489786650901     1.007825032230
         H            4.473117824103     1.218755759916     1.031273650901     1.007825032230
         H            1.784204824103     1.680056759916     1.299028650901     1.007825032230
         H            2.619920824103     2.395294759916    -0.098780349099     1.007825032230
         C           -4.656427175897    -0.310352240084     0.356284650901    12.000000000000
         H           -5.652725175897    -0.600375240084     0.686735650901     1.007825032230
         H           -4.536370175897     0.766337759916     0.466953650901     1.007825032230
         H           -4.526775175897    -0.584451240084    -0.689650349099     1.007825032230

  Nuclear repulsion =  862.218940092971707
  Reference energy  = -576.592390269090629

  ==> Basis Set <==

  Basis Set: CC-PVTZ
    Blend: CC-PVTZ
    Number of shells: 236
    Number of basis functions: 644
    Number of Cartesian functions: 730
    Spherical Harmonics?: true
    Max angular momentum: 3

  ==> CGRSolver (by Rob Parrish) <==

   Number of roots    =         1
   Preconditioning    =    JACOBI
   Convergence cutoff =     1E-06
   Maximum iterations =       100

  ==> CPHFRHamiltonian (by Rob Parrish) <== 

  ==> DiskDFJK: Density-Fitted J/K Matrices <==

    J tasked:                  Yes
    K tasked:                  Yes
    wK tasked:                  No
    OpenMP threads:              1
    Integrals threads:           1
    Memory [MiB]:              375
    Algorithm:                Disk
    Integral Cache:           NONE
    Schwarz Cutoff:          1E-12
    Fitting Condition:       1E-10

   => Auxiliary Basis Set <=

  Basis Set: (CC-PVTZ AUX)
    Blend: CC-PVTZ-JKFIT
    Number of shells: 510
    Number of basis functions: 1586
    Number of Cartesian functions: 1904
    Spherical Harmonics?: true
    Max angular momentum: 4

  ==> CPHF Iterations <==

  => Iterations <=

             Iter  Converged  Remaining    Residual
  CGR           1          0          1   8.713E-02
  CGR           2          0          1   2.087E-02
  CGR           3          0          1   9.062E-03
  CGR           4          0          1   4.039E-03
  CGR           5          0          1   2.024E-03
  CGR           6          0          1   1.034E-03
  CGR           7          0          1   3.671E-04
  CGR           8          0          1   1.222E-04
  CGR           9          0          1   4.034E-05
  CGR          10          0          1   1.149E-05
  CGR          11          0          1   3.848E-06
  CGR          12          0          1   1.057E-06
  CGR          13          1          0   3.732E-07

    CGRSolver converged.

  ==> DFCorrGrad: Density-Fitted Correlated Gradients <==

    OpenMP threads:              1
    Integrals threads:           1
    Memory [GiB]:            0.366
    Schwarz Cutoff:          0E+00
    Fitting Condition:       1E-10

   => Auxiliary Basis Set <=

  Basis Set: (CC-PVTZ AUX)
    Blend: CC-PVTZ-JKFIT
    Number of shells: 510
    Number of basis functions: 1586
    Number of Cartesian functions: 1904
    Spherical Harmonics?: true
    Max angular momentum: 4

	-----------------------------------------------------------
	 ==================> DF-MP2 Energies <==================== 
	-----------------------------------------------------------
	 Reference Energy          =    -576.5923902690906289 [Eh]
	 Singles Energy            =      -0.0000000000000000 [Eh]
	 Same-Spin Energy          =      -0.6249174626170281 [Eh]
	 Opposite-Spin Energy      =      -1.9678068405700935 [Eh]
	 Correlation Energy        =      -2.5927243031871217 [Eh]
	 Total Energy              =    -579.1851145722777119 [Eh]
	-----------------------------------------------------------
	 ================> DF-SCS-MP2 Energies <================== 
	-----------------------------------------------------------
	 SCS Same-Spin Scale       =       0.3333333333333333 [-]
	 SCS Opposite-Spin Scale   =       1.2000000000000000 [-]
	 SCS Same-Spin Energy      =      -0.2083058208723427 [Eh]
	 SCS Opposite-Spin Energy  =      -2.3613682086841119 [Eh]
	 SCS Correlation Energy    =      -2.5696740295564546 [Eh]
	 SCS Total Energy          =    -579.1620642986471239 [Eh]
	-----------------------------------------------------------


  -Total Gradient:
     Atom            X                  Y                   Z
    ------   -----------------  -----------------  -----------------
       1        0.000241391224     0.000329673804    -0.002597131205
       2       -0.001227046988     0.003831605239     0.003025854041
       3        0.001436393361    -0.002303128034    -0.000024117599
       4       -0.001371978620     0.000328166724    -0.002865301265
       5       -0.002160808732     0.001211734613     0.001742755590
       6        0.004497108259    -0.001894369057    -0.000927705872
       7        0.002566036452    -0.002316617872     0.001780317945
       8        0.008999278125    -0.002494663017     0.003054550405
       9       -0.003402445984     0.001125329452    -0.001137543221
      10       -0.001546188511    -0.002718223930     0.003214435770
      11       -0.008836131373    -0.005282166498     0.005979178926
      12       -0.004158830861     0.006333678130    -0.007135071353
      13        0.001765951632     0.007516471446    -0.008567471774
      14       -0.020907347514     0.003677814476    -0.004396836678
      15       -0.021241529126    -0.000275764415     0.000142844683
      16        0.001077467931    -0.007852839577     0.009172387499
      17        0.010084641392    -0.004092914537     0.004579264102
      18       -0.003376043169    -0.010804734994    -0.002026279511
      19       -0.007617907918    -0.002862905476    -0.007562004772
      20        0.006117798479     0.008385913901    -0.003437781676
      21        0.005468511152    -0.008976040198     0.001560669112
      22        0.005964902853     0.005330545880    -0.006449887936
      23       -0.001829793322    -0.006662534956     0.007911139654
      24        0.008392189725     0.005941351700     0.003472509641
      25       -0.005289584092     0.002725455475     0.008646324503
      26        0.002240105885     0.009064105857    -0.004124213193
      27        0.018516536199     0.001078205177    -0.001143874518
      28       -0.006027539498     0.001872770728    -0.002251032450
      29        0.005791633095     0.000855258898     0.001023954352
      30        0.005833229938    -0.001071178940    -0.000659933197


*** tstop() called on skystd18.palmetto.clemson.edu at Fri Nov 26 00:31:01 2021
Module time:
	user time   =     813.02 seconds =      13.55 minutes
	system time =      19.91 seconds =       0.33 minutes
	total time  =        835 seconds =      13.92 minutes
Total time:
	user time   =     956.99 seconds =      15.95 minutes
	system time =      32.28 seconds =       0.54 minutes
	total time  =        991 seconds =      16.52 minutes

			-----------------------------------------
			 OPTKING 2.0: for geometry optimizations 
			  - R.A. King,  Bethel University        
			-----------------------------------------

	Internal coordinates to be generated automatically.
	Detected frag 1 with atoms:  1 2 3 4 5 6 7 8 9 10 11 12 13 14 15 16 17 18 19 20
	 21 22 23 24 25 26 27 28 29 30
	---Fragment 1 Bond Connectivity---
	 1 : 2 6 19 20
	 2 : 1 3 6 7
	 3 : 2 4 25 26
	 4 : 3 5 23 24
	 5 : 4 6 21 22
	 6 : 1 2 5 18
	 7 : 2 8 12
	 8 : 7 9 17
	 9 : 8 10 16
	 10 : 9 11 15
	 11 : 10 12 14
	 12 : 7 11 13
	 13 : 12
	 14 : 11
	 15 : 10 27
	 16 : 9
	 17 : 8
	 18 : 6
	 19 : 1
	 20 : 1
	 21 : 5
	 22 : 5
	 23 : 4
	 24 : 4
	 25 : 3
	 26 : 3
	 27 : 15 28 29 30
	 28 : 27
	 29 : 27
	 30 : 27

	---Fragment 1 Geometry and Gradient---
	 C           3.5577946029        1.2637444441       -3.8403984679
	 C           2.8866961640        1.0535672147       -1.0673916747
	 C           4.4515783685        2.7201261333        0.7345283264
	 C           6.8391622903        1.1514739252        1.3040709936
	 C           7.3671479903       -0.3126915459       -1.1606742254
	 C           4.7453476330       -0.8141360425       -2.2645520724
	 C           0.2910137115        0.2726926954       -0.2841984614
	 C          -0.0287581846       -1.4438324718        1.7304328917
	 C          -2.4518916343       -2.1444805581        2.5455190128
	 C          -4.5997808046       -1.1371903928        1.3512933597
	 C          -4.3049457346        0.5736977213       -0.6550175293
	 C          -1.8751037571        1.2754059440       -1.4604679369
	 H          -1.6456834466        2.6207133111       -3.0153421518
	 H          -5.9693522552        1.3667382974       -1.5920949204
	 O          -6.9856091709       -1.8317082076        2.1426199542
	 H          -2.6675509592       -3.4864903531        4.1042785046
	 H           1.6457130174       -2.2477427525        2.6449186070
	 H           4.1328514910       -2.7543462014       -2.6320773477
	 H           2.1199586858        0.6979812291       -5.2130067083
	 H           4.7697062028        2.8361005154       -4.4258545188
	 H           8.4080771703       -2.0818361371       -0.8139812910
	 H           8.5174809747        0.8356137623       -2.4710424461
	 H           6.3949500392       -0.2181258712        2.8152887556
	 H           8.4529676145        2.3031146001        1.9488247606
	 H           3.3716584693        3.1748471515        2.4548083793
	 H           4.9509328279        4.5264510860       -0.1866678064
	 C          -8.7993720856       -0.5864807362        0.6732804129
	 H         -10.6821024449       -1.1345447763        1.2977423008
	 H          -8.5724972361        1.4481684858        0.8824145135
	 H          -8.5543653140       -1.1044527774       -1.3032502821
	             0.0002413912        0.0003296738       -0.0025971312
	            -0.0012270470        0.0038316052        0.0030258540
	             0.0014363934       -0.0023031280       -0.0000241176
	            -0.0013719786        0.0003281667       -0.0028653013
	            -0.0021608087        0.0012117346        0.0017427556
	             0.0044971083       -0.0018943691       -0.0009277059
	             0.0025660365       -0.0023166179        0.0017803179
	             0.0089992781       -0.0024946630        0.0030545504
	            -0.0034024460        0.0011253295       -0.0011375432
	            -0.0015461885       -0.0027182239        0.0032144358
	            -0.0088361314       -0.0052821665        0.0059791789
	            -0.0041588309        0.0063336781       -0.0071350714
	             0.0017659516        0.0075164714       -0.0085674718
	            -0.0209073475        0.0036778145       -0.0043968367
	            -0.0212415291       -0.0002757644        0.0001428447
	             0.0010774679       -0.0078528396        0.0091723875
	             0.0100846414       -0.0040929145        0.0045792641
	            -0.0033760432       -0.0108047350       -0.0020262795
	            -0.0076179079       -0.0028629055       -0.0075620048
	             0.0061177985        0.0083859139       -0.0034377817
	             0.0054685112       -0.0089760402        0.0015606691
	             0.0059649029        0.0053305459       -0.0064498879
	            -0.0018297933       -0.0066625350        0.0079111397
	             0.0083921897        0.0059413517        0.0034725096
	            -0.0052895841        0.0027254555        0.0086463245
	             0.0022401059        0.0090641059       -0.0041242132
	             0.0185165362        0.0010782052       -0.0011438745
	            -0.0060275395        0.0018727707       -0.0022510324
	             0.0057916331        0.0008552589        0.0010239544
	             0.0058332299       -0.0010711789       -0.0006599332

	Previous optimization step data not found.  Starting new optimization.

	---Fragment 1 Intrafragment Coordinates---
	 - Coordinate -           - BOHR/RAD -       - ANG/DEG -
	 R(1,2)           =         2.860789	       1.513864
	 R(1,6)           =         2.865512	       1.516364
	 R(1,19)          =         2.066764	       1.093684
	 R(1,20)          =         2.069732	       1.095255
	 R(2,3)           =         2.910875	       1.540368
	 R(2,6)           =         2.894148	       1.531517
	 R(2,7)           =         2.821476	       1.493061
	 R(3,4)           =         2.913006	       1.541497
	 R(3,25)          =         2.081433	       1.101447
	 R(3,26)          =         2.088245	       1.105052
	 R(4,5)           =         2.915050	       1.542578
	 R(4,23)          =         2.087321	       1.104562
	 R(4,24)          =         2.084790	       1.103224
	 R(5,6)           =         2.888569	       1.528565
	 R(5,21)          =         2.081731	       1.101604
	 R(5,22)          =         2.087806	       1.104820
	 R(6,18)          =         2.067521	       1.094085
	 R(7,8)           =         2.665981	       1.410776
	 R(7,12)          =         2.661035	       1.408159
	 R(8,9)           =         2.650820	       1.402754
	 R(8,17)          =         2.070365	       1.095590
	 R(9,10)          =         2.655981	       1.405485
	 R(9,16)          =         2.068147	       1.094416
	 R(10,11)         =         2.653177	       1.404001
	 R(10,15)         =         2.607821	       1.379999
	 R(11,12)         =         2.654294	       1.404592
	 R(11,14)         =         2.068158	       1.094422
	 R(12,13)         =         2.068845	       1.094786
	 R(15,27)         =         2.645616	       1.400000
	 R(27,28)         =         2.057912	       1.089000
	 R(27,29)         =         2.057913	       1.089001
	 R(27,30)         =         2.057911	       1.089000
	 B(1,2,3)         =         2.017351	     115.585685
	 B(1,2,6)         =         1.042344	      59.721936
	 B(1,2,7)         =         2.100422	     120.345328
	 B(1,6,2)         =         1.039528	      59.560564
	 B(1,6,5)         =         2.049282	     117.415187
	 B(1,6,18)        =         2.048738	     117.384025
	 B(2,1,6)         =         1.059720	      60.717500
	 B(2,1,19)        =         2.049292	     117.415782
	 B(2,1,20)        =         2.057096	     117.862942
	 B(2,3,4)         =         1.826944	     104.676198
	 B(2,3,25)        =         1.936680	     110.963570
	 B(2,3,26)        =         1.929130	     110.530986
	 B(2,6,5)         =         1.888930	     108.227717
	 B(2,6,18)        =         2.081600	     119.266883
	 B(2,7,8)         =         2.092441	     119.888038
	 B(2,7,12)        =         2.119852	     121.458574
	 B(3,2,6)         =         1.854886	     106.277162
	 B(3,2,7)         =         2.072817	     118.763664
	 B(3,4,5)         =         1.827213	     104.691617
	 B(3,4,23)        =         1.897014	     108.690913
	 B(3,4,24)        =         1.979545	     113.419580
	 B(4,3,25)        =         1.962002	     112.414409
	 B(4,3,26)        =         1.934839	     110.858094
	 B(4,5,6)         =         1.819262	     104.236043
	 B(4,5,21)        =         1.956931	     112.123910
	 B(4,5,22)        =         1.932871	     110.745342
	 B(5,4,23)        =         1.897723	     108.731493
	 B(5,4,24)        =         1.980944	     113.499740
	 B(5,6,18)        =         2.094079	     119.981893
	 B(6,1,19)        =         2.043221	     117.067911
	 B(6,1,20)        =         2.053042	     117.630648
	 B(6,2,7)         =         2.125903	     121.805252
	 B(6,5,21)        =         1.949769	     111.713517
	 B(6,5,22)        =         1.934481	     110.837597
	 B(7,8,9)         =         2.108523	     120.809467
	 B(7,8,17)        =         2.079202	     119.129487
	 B(7,12,11)       =         2.107639	     120.758819
	 B(7,12,13)       =         2.079425	     119.142292
	 B(8,7,12)        =         2.070330	     118.621159
	 B(8,9,10)        =         2.095249	     120.048921
	 B(8,9,16)        =         2.092759	     119.906259
	 B(9,8,17)        =         2.095393	     120.057181
	 B(9,10,11)       =         2.088291	     119.650243
	 B(9,10,15)       =         2.097186	     120.159930
	 B(10,9,16)       =         2.095155	     120.043517
	 B(10,11,12)      =         2.096327	     120.110679
	 B(10,11,14)      =         2.094932	     120.030779
	 B(10,15,27)      =         1.910634	     109.471241
	 B(11,10,15)      =         2.097704	     120.189603
	 B(11,12,13)      =         2.096116	     120.098614
	 B(12,11,14)      =         2.091924	     119.858405
	 B(15,27,28)      =         1.910633	     109.471228
	 B(15,27,29)      =         1.910633	     109.471205
	 B(15,27,30)      =         1.910634	     109.471257
	 B(19,1,20)       =         2.012474	     115.306264
	 B(21,5,22)       =         1.871758	     107.243849
	 B(23,4,24)       =         1.878938	     107.655190
	 B(25,3,26)       =         1.875161	     107.438837
	 B(28,27,29)      =         1.910633	     109.471193
	 B(28,27,30)      =         1.910634	     109.471245
	 B(29,27,30)      =         1.910633	     109.471195
	 D(1,2,3,4)       =        -1.487484	     -85.226572
	 D(1,2,3,25)      =         2.675187	     153.276932
	 D(1,2,3,26)      =         0.596675	      34.186976
	 D(1,2,6,5)       =         1.948453	     111.638142
	 D(1,2,6,18)      =        -1.856921	    -106.393716
	 D(1,2,7,8)       =         2.408854	     138.017151
	 D(1,2,7,12)      =        -0.769280	     -44.076485
	 D(1,6,2,3)       =        -1.928884	    -110.516925
	 D(1,6,2,7)       =         1.903190	     109.044759
	 D(1,6,5,4)       =         1.468895	      84.161501
	 D(1,6,5,21)      =        -2.697521	    -154.556588
	 D(1,6,5,22)      =        -0.611214	     -35.019998
	 D(2,1,6,5)       =        -1.674893	     -95.964306
	 D(2,1,6,18)      =         1.911561	     109.524357
	 D(2,3,4,5)       =         0.589407	      33.770540
	 D(2,3,4,23)      =        -1.436065	     -82.280465
	 D(2,3,4,24)      =         2.757968	     158.019943
	 D(2,6,1,19)      =        -1.882068	    -107.834530
	 D(2,6,1,20)      =         1.887309	     108.134828
	 D(2,6,5,4)       =         0.342659	      19.632931
	 D(2,6,5,21)      =         2.459428	     140.914841
	 D(2,6,5,22)      =        -1.737450	     -99.548568
	 D(2,7,8,9)       =         3.108309	     178.092997
	 D(2,7,8,17)      =        -0.045760	      -2.621861
	 D(2,7,12,11)     =        -3.110817	    -178.236678
	 D(2,7,12,13)     =         0.027453	       1.572949
	 D(3,2,1,6)       =         1.651177	      94.605460
	 D(3,2,1,19)      =        -2.759824	    -158.126276
	 D(3,2,1,20)      =        -0.229547	     -13.152074
	 D(3,2,6,5)       =         0.019569	       1.121217
	 D(3,2,6,18)      =         2.497380	     143.089359
	 D(3,2,7,8)       =        -1.201325	     -68.830845
	 D(3,2,7,12)      =         1.903727	     109.075519
	 D(3,4,5,6)       =        -0.573602	     -32.864999
	 D(3,4,5,21)      =        -2.685602	    -153.873654
	 D(3,4,5,22)      =         1.507600	      86.379143
	 D(4,3,2,6)       =        -0.375127	     -21.493186
	 D(4,3,2,7)       =         2.100956	     120.375901
	 D(4,5,6,18)      =        -2.129570	    -122.015351
	 D(5,4,3,25)      =         2.693170	     154.307289
	 D(5,4,3,26)      =        -1.490910	     -85.422842
	 D(5,6,1,19)      =         2.726225	     156.201164
	 D(5,6,1,20)      =         0.212416	      12.170522
	 D(5,6,2,7)       =        -2.431542	    -139.317099
	 D(6,1,2,7)       =        -1.944837	    -111.430967
	 D(6,2,1,19)      =         1.872184	     107.268264
	 D(6,2,1,20)      =        -1.880724	    -107.757534
	 D(6,2,3,25)      =        -2.495641	    -142.989682
	 D(6,2,3,26)      =         1.709033	      97.920361
	 D(6,2,7,8)       =         1.168456	      66.947624
	 D(6,2,7,12)      =        -2.009677	    -115.146011
	 D(6,5,4,23)      =         1.451379	      83.157872
	 D(6,5,4,24)      =        -2.741271	    -157.063259
	 D(7,2,1,19)      =        -0.072653	      -4.162703
	 D(7,2,1,20)      =         2.457624	     140.811498
	 D(7,2,3,25)      =        -0.019558	      -1.120595
	 D(7,2,3,26)      =        -2.098070	    -120.210552
	 D(7,2,6,18)      =         0.046269	       2.651043
	 D(7,8,9,10)      =         0.001304	       0.074700
	 D(7,8,9,16)      =         3.135653	     179.659684
	 D(7,12,11,10)    =         0.004887	       0.280010
	 D(7,12,11,14)    =        -3.139052	    -179.854428
	 D(8,7,12,11)     =        -0.005315	      -0.304531
	 D(8,7,12,13)     =         3.132955	     179.505096
	 D(8,9,10,11)     =        -0.001796	      -0.102888
	 D(8,9,10,15)     =         3.136800	     179.725380
	 D(9,8,7,12)      =         0.002225	       0.127485
	 D(9,10,11,12)    =        -0.001268	      -0.072650
	 D(9,10,11,14)    =        -3.140510	    -179.937978
	 D(9,10,15,27)    =         3.141593	     180.000000
	 D(10,9,8,17)     =        -3.127697	    -179.203838
	 D(10,11,12,13)   =        -3.133351	    -179.527802
	 D(10,15,27,28)   =         3.141593	     180.000000
	 D(10,15,27,29)   =        -1.047197	     -59.999975
	 D(10,15,27,30)   =         1.047198	      60.000007
	 D(11,10,9,16)    =        -3.136135	    -179.687298
	 D(11,10,15,27)   =        -0.003013	      -0.172648
	 D(12,7,8,17)     =         3.131341	     179.412627
	 D(12,11,10,15)   =        -3.139862	    -179.900866
	 D(13,12,11,14)   =         0.005895	       0.337760
	 D(14,11,10,15)   =         0.004081	       0.233806
	 D(15,10,9,16)    =         0.002460	       0.140969
	 D(16,9,8,17)     =         0.006652	       0.381147
	 D(18,6,1,19)     =         0.029493	       1.689827
	 D(18,6,1,20)     =        -2.484316	    -142.340815
	 D(18,6,5,21)     =        -0.012801	      -0.733441
	 D(18,6,5,22)     =         2.073506	     118.803150
	 D(21,5,4,23)     =        -0.660621	     -37.850783
	 D(21,5,4,24)     =         1.429915	      81.928087
	 D(22,5,4,23)     =        -2.750604	    -157.597986
	 D(22,5,4,24)     =        -0.660068	     -37.819116
	 D(23,4,3,25)     =         0.667698	      38.256283
	 D(23,4,3,26)     =         2.766803	     158.526152
	 D(24,4,3,25)     =        -1.421454	     -81.443309
	 D(24,4,3,26)     =         0.677651	      38.826560

	Current energy   :      -579.1851145723

	Generating empirical Hessian (Schlegel '84) for each fragment.
	Taking RFO optimization step.
	Going to follow RFO solution 1.
	Using RFO vector 1.
	Norm of target step-size    0.39027
	Projected energy change by RFO approximation:        -0.0400846714

	Back-transformation to cartesian coordinates...
	Successfully converged to displaced geometry.

	--- Internal Coordinate Step in ANG or DEG, aJ/ANG or AJ/DEG ---
	 ---------------------------------------------------------------------------
	   Coordinate                Previous        Force       Change         New 
	   ----------                --------       ------       ------       ------
	    1 R(1,2)          =      1.513864    -0.074764    -0.013586     1.500278
	    2 R(1,6)          =      1.516364    -0.068216    -0.010572     1.505792
	    3 R(1,19)         =      1.093684    -0.091496    -0.015063     1.078622
	    4 R(1,20)         =      1.095255    -0.090011    -0.014886     1.080369
	    5 R(2,3)          =      1.540368    -0.076930    -0.015446     1.524923
	    6 R(2,6)          =      1.531517    -0.070073    -0.014830     1.516687
	    7 R(2,7)          =      1.493061    -0.103721    -0.017651     1.475409
	    8 R(3,4)          =      1.541497    -0.067036    -0.013268     1.528229
	    9 R(3,25)         =      1.101447    -0.086391    -0.014546     1.086901
	   10 R(3,26)         =      1.105052    -0.083997    -0.014290     1.090762
	   11 R(4,5)          =      1.542578    -0.067784    -0.013215     1.529364
	   12 R(4,23)         =      1.104562    -0.086413    -0.014680     1.089882
	   13 R(4,24)         =      1.103224    -0.089408    -0.015131     1.088093
	   14 R(5,6)          =      1.528565    -0.072705    -0.013064     1.515500
	   15 R(5,21)         =      1.101604    -0.087516    -0.014742     1.086863
	   16 R(5,22)         =      1.104820    -0.084583    -0.014380     1.090440
	   17 R(6,18)         =      1.094085    -0.094743    -0.015615     1.078469
	   18 R(7,8)          =      1.410776    -0.144709    -0.019498     1.391278
	   19 R(7,12)         =      1.408159    -0.174543    -0.023512     1.384647
	   20 R(8,9)          =      1.402754    -0.162689    -0.020729     1.382025
	   21 R(8,17)         =      1.095590    -0.096955    -0.016050     1.079540
	   22 R(9,10)         =      1.405485    -0.119007    -0.014890     1.390594
	   23 R(9,16)         =      1.094416    -0.098012    -0.016170     1.078246
	   24 R(10,11)        =      1.404001    -0.010281    -0.001006     1.402994
	   25 R(10,15)        =      1.379999     0.034266     0.004096     1.384096
	   26 R(11,12)        =      1.404592    -0.112735    -0.014887     1.389705
	   27 R(11,14)        =      1.094422    -0.166655    -0.027495     1.066927
	   28 R(12,13)        =      1.094786    -0.094931    -0.015678     1.079107
	   29 R(15,27)        =      1.400000     0.111727     0.014282     1.414282
	   30 R(27,28)        =      1.089000    -0.035695    -0.005796     1.083204
	   31 R(27,29)        =      1.089001    -0.013084    -0.002125     1.086876
	   32 R(27,30)        =      1.089000    -0.013165    -0.002138     1.086862
	   33 B(1,2,3)        =    115.585685    -0.000010    -0.250782   115.334903
	   34 B(1,2,6)        =     59.721936     0.000014     0.157152    59.879088
	   35 B(1,2,7)        =    120.345328    -0.000002     0.006943   120.352270
	   36 B(1,6,2)        =     59.560564    -0.000022    -0.041164    59.519400
	   37 B(1,6,5)        =    117.415187    -0.000005    -0.009405   117.405782
	   38 B(1,6,18)       =    117.384025     0.000010    -0.016566   117.367458
	   39 B(2,1,6)        =     60.717500     0.000008    -0.115987    60.601513
	   40 B(2,1,19)       =    117.415782    -0.000015    -0.119668   117.296114
	   41 B(2,1,20)       =    117.862942    -0.000004     0.135652   117.998594
	   42 B(2,3,4)        =    104.676198     0.000005     0.195379   104.871577
	   43 B(2,3,25)       =    110.963570    -0.000015    -0.303635   110.659936
	   44 B(2,3,26)       =    110.530986    -0.000004    -0.202800   110.328186
	   45 B(2,6,5)        =    108.227717     0.000018     0.258065   108.485783
	   46 B(2,6,18)       =    119.266883    -0.000000    -0.184685   119.082198
	   47 B(2,7,8)        =    119.888038     0.000092     0.505589   120.393627
	   48 B(2,7,12)       =    121.458574     0.000133     0.266760   121.725334
	   49 B(3,2,6)        =    106.277162     0.000002    -0.228932   106.048230
	   50 B(3,2,7)        =    118.763664     0.000007     0.196779   118.960443
	   51 B(3,4,5)        =    104.691617    -0.000009    -0.100134   104.591483
	   52 B(3,4,23)       =    108.690913    -0.000005    -0.003798   108.687115
	   53 B(3,4,24)       =    113.419580     0.000004     0.183452   113.603032
	   54 B(4,3,25)       =    112.414409    -0.000003    -0.050711   112.363698
	   55 B(4,3,26)       =    110.858094    -0.000004     0.040457   110.898551
	   56 B(4,5,6)        =    104.236043    -0.000018    -0.183929   104.052114
	   57 B(4,5,21)       =    112.123910     0.000003    -0.175964   111.947946
	   58 B(4,5,22)       =    110.745342    -0.000003     0.038850   110.784193
	   59 B(5,4,23)       =    108.731493    -0.000008    -0.002986   108.728508
	   60 B(5,4,24)       =    113.499740     0.000003    -0.188011   113.311730
	   61 B(5,6,18)       =    119.981893    -0.000005    -0.007275   119.974618
	   62 B(6,1,19)       =    117.067911    -0.000012     0.061085   117.128996
	   63 B(6,1,20)       =    117.630648    -0.000009    -0.047564   117.583084
	   64 B(6,2,7)        =    121.805252    -0.000008     0.062873   121.868125
	   65 B(6,5,21)       =    111.713517     0.000004     0.205633   111.919149
	   66 B(6,5,22)       =    110.837597     0.000001     0.010287   110.847884
	   67 B(7,8,9)        =    120.809467     0.000249     0.433668   121.243135
	   68 B(7,8,17)       =    119.129487    -0.000049     0.065822   119.195309
	   69 B(7,12,11)      =    120.758819     0.000320     0.890269   121.649088
	   70 B(7,12,13)      =    119.142292    -0.000121    -0.293777   118.848516
	   71 B(8,7,12)       =    118.621159    -0.000225    -0.771105   117.850054
	   72 B(8,9,10)       =    120.048921     0.000380     0.996822   121.045743
	   73 B(8,9,16)       =    119.906259    -0.000006     0.162104   120.068364
	   74 B(9,8,17)       =    120.057181    -0.000200    -0.499238   119.557942
	   75 B(9,10,11)      =    119.650243    -0.000674    -1.572646   118.077597
	   76 B(9,10,15)      =    120.159930    -0.002860    -7.164210   112.995720
	   77 B(10,9,16)      =    120.043517    -0.000373    -1.158886   118.884630
	   78 B(10,11,12)     =    120.110679    -0.000051     0.023095   120.133774
	   79 B(10,11,14)     =    120.030779     0.000639     2.234898   122.265677
	   80 B(10,15,27)     =    109.471241     0.005935    14.726257   124.197498
	   81 B(11,10,15)     =    120.189603     0.003534     8.736840   128.926443
	   82 B(11,12,13)     =    120.098614    -0.000199    -0.596410   119.502204
	   83 B(12,11,14)     =    119.858405    -0.000588    -2.257957   117.600448
	   84 B(15,27,28)     =    109.471228    -0.000952    -3.070109   106.401119
	   85 B(15,27,29)     =    109.471205     0.000664     3.165848   112.637054
	   86 B(15,27,30)     =    109.471257     0.000664     3.266446   112.737704
	   87 B(19,1,20)      =    115.306264     0.000021     0.024921   115.331184
	   88 B(21,5,22)      =    107.243849     0.000012     0.099884   107.343732
	   89 B(23,4,24)      =    107.655190     0.000013     0.106260   107.761450
	   90 B(25,3,26)      =    107.438837     0.000020     0.300422   107.739259
	   91 B(28,27,29)     =    109.471193    -0.000151    -0.494795   108.976398
	   92 B(28,27,30)     =    109.471245    -0.000152    -0.770873   108.700372
	   93 B(29,27,30)     =    109.471195    -0.000071    -2.178944   107.292251
	   94 D(1,2,3,4)      =    -85.226572    -0.000003    -0.154522   -85.381094
	   95 D(1,2,3,25)     =    153.276932    -0.000001    -0.047842   153.229090
	   96 D(1,2,3,26)     =     34.186976    -0.000004    -0.098019    34.088957
	   97 D(1,2,6,5)      =    111.638142    -0.000004    -0.145443   111.492699
	   98 D(1,2,6,18)     =   -106.393716    -0.000001    -0.045648  -106.439364
	   99 D(1,2,7,8)      =    138.017151     0.000005     0.292309   138.309460
	  100 D(1,2,7,12)     =    -44.076485     0.000005     0.317425   -43.759060
	  101 D(1,6,2,3)      =   -110.516925     0.000003     0.159100  -110.357826
	  102 D(1,6,2,7)      =    109.044759     0.000002     0.055036   109.099795
	  103 D(1,6,5,4)      =     84.161501    -0.000002     0.090723    84.252224
	  104 D(1,6,5,21)     =   -154.556588    -0.000004    -0.124771  -154.681359
	  105 D(1,6,5,22)     =    -35.019998     0.000001     0.145708   -34.874290
	  106 D(2,1,6,5)      =    -95.964306    -0.000004    -0.308086   -96.272393
	  107 D(2,1,6,18)     =    109.524357    -0.000003    -0.230124   109.294233
	  108 D(2,3,4,5)      =     33.770540     0.000000     0.141477    33.912018
	  109 D(2,3,4,23)     =    -82.280465     0.000004     0.197108   -82.083357
	  110 D(2,3,4,24)     =    158.019943     0.000000    -0.051857   157.968085
	  111 D(2,6,1,19)     =   -107.834530     0.000002     0.211310  -107.623220
	  112 D(2,6,1,20)     =    108.134828     0.000000     0.140884   108.275712
	  113 D(2,6,5,4)      =     19.632931     0.000002     0.031031    19.663962
	  114 D(2,6,5,21)     =    140.914841     0.000001    -0.184463   140.730378
	  115 D(2,6,5,22)     =    -99.548568     0.000005     0.086016   -99.462552
	  116 D(2,7,8,9)      =    178.092997     0.000001     0.019736   178.112733
	  117 D(2,7,8,17)     =     -2.621861     0.000001     0.039829    -2.582032
	  118 D(2,7,12,11)    =   -178.236678    -0.000001    -0.021689  -178.258367
	  119 D(2,7,12,13)    =      1.572949     0.000000     0.008175     1.581123
	  120 D(3,2,1,6)      =     94.605460     0.000003    -0.078035    94.527425
	  121 D(3,2,1,19)     =   -158.126276     0.000002     0.004157  -158.122119
	  122 D(3,2,1,20)     =    -13.152074     0.000005     0.080271   -13.071803
	  123 D(3,2,6,5)      =      1.121217    -0.000002     0.013657     1.134873
	  124 D(3,2,6,18)     =    143.089359     0.000002     0.113451   143.202810
	  125 D(3,2,7,8)      =    -68.830845     0.000001     0.115175   -68.715670
	  126 D(3,2,7,12)     =    109.075519     0.000001     0.140291   109.215810
	  127 D(3,4,5,6)      =    -32.864999     0.000001     0.015100   -32.849899
	  128 D(3,4,5,21)     =   -153.873654     0.000002    -0.023407  -153.897060
	  129 D(3,4,5,22)     =     86.379143    -0.000002    -0.059110    86.320034
	  130 D(4,3,2,6)      =    -21.493186     0.000000    -0.090917   -21.584103
	  131 D(4,3,2,7)      =    120.375901    -0.000000    -0.046385   120.329516
	  132 D(4,5,6,18)     =   -122.015351    -0.000002     0.008173  -122.007179
	  133 D(5,4,3,25)     =    154.307289    -0.000004    -0.130802   154.176487
	  134 D(5,4,3,26)     =    -85.422842     0.000001     0.247446   -85.175396
	  135 D(5,6,1,19)     =    156.201164    -0.000001    -0.096776   156.104387
	  136 D(5,6,1,20)     =     12.170522    -0.000003    -0.167203    12.003319
	  137 D(5,6,2,7)      =   -139.317099    -0.000003    -0.090407  -139.407506
	  138 D(6,1,2,7)      =   -111.430967     0.000001    -0.137095  -111.568062
	  139 D(6,2,1,19)     =    107.268264    -0.000001     0.082192   107.350456
	  140 D(6,2,1,20)     =   -107.757534     0.000001     0.158307  -107.599228
	  141 D(6,2,3,25)     =   -142.989682     0.000002     0.015763  -142.973919
	  142 D(6,2,3,26)     =     97.920361    -0.000000    -0.034414    97.885948
	  143 D(6,2,7,8)      =     66.947624     0.000002     0.067828    67.015452
	  144 D(6,2,7,12)     =   -115.146011     0.000002     0.092944  -115.053067
	  145 D(6,5,4,23)     =     83.157872    -0.000002    -0.041160    83.116712
	  146 D(6,5,4,24)     =   -157.063259     0.000001    -0.029061  -157.092320
	  147 D(7,2,1,19)     =     -4.162703    -0.000000    -0.054903    -4.217607
	  148 D(7,2,1,20)     =    140.811498     0.000002     0.021212   140.832710
	  149 D(7,2,3,25)     =     -1.120595     0.000002     0.060295    -1.060300
	  150 D(7,2,3,26)     =   -120.210552    -0.000001     0.010119  -120.200433
	  151 D(7,2,6,18)     =      2.651043     0.000001     0.009388     2.660431
	  152 D(7,8,9,10)     =      0.074700     0.000000     0.004906     0.079605
	  153 D(7,8,9,16)     =    179.659684     0.000001     0.006460   179.666144
	  154 D(7,12,11,10)   =      0.280010    -0.000000    -0.011288     0.268722
	  155 D(7,12,11,14)   =   -179.854428     0.000001     0.010190  -179.844238
	  156 D(8,7,12,11)    =     -0.304531     0.000001     0.028207    -0.276325
	  157 D(8,7,12,13)    =    179.505096     0.000001     0.058070   179.563165
	  158 D(8,9,10,11)    =     -0.102888     0.000000     0.012147    -0.090741
	  159 D(8,9,10,15)    =    179.725380     0.000002     0.021743   179.747123
	  160 D(9,8,7,12)     =      0.127485    -0.000001    -0.024859     0.102626
	  161 D(9,10,11,12)   =     -0.072650    -0.000000    -0.006718    -0.079368
	  162 D(9,10,11,14)   =   -179.937978    -0.000001    -0.023003  -179.960982
	  163 D(9,10,15,27)   =    180.000000    -0.000000    -0.011217   179.988783
	  164 D(10,9,8,17)    =   -179.203838    -0.000000    -0.019313  -179.223150
	  165 D(10,11,12,13)  =   -179.527802    -0.000001    -0.041940  -179.569742
	  166 D(10,15,27,28)  =    180.000000     0.000000    -0.062590   179.937410
	  167 D(10,15,27,29)  =    -59.999975    -0.000083    -0.721398   -60.721373
	  168 D(10,15,27,30)  =     60.000007     0.000084     0.876863    60.876870
	  169 D(11,10,9,16)   =   -179.687298    -0.000000     0.005218  -179.682081
	  170 D(11,10,15,27)  =     -0.172648    -0.000000    -0.022455    -0.195103
	  171 D(12,7,8,17)    =    179.412627    -0.000000    -0.004766   179.407861
	  172 D(12,11,10,15)  =   -179.900866     0.000001     0.013349  -179.887516
	  173 D(13,12,11,14)  =      0.337760    -0.000000    -0.020462     0.317298
	  174 D(14,11,10,15)  =      0.233806     0.000001    -0.002936     0.230870
	  175 D(15,10,9,16)   =      0.140969     0.000001     0.014814     0.155783
	  176 D(16,9,8,17)    =      0.381147    -0.000000    -0.017758     0.363389
	  177 D(18,6,1,19)    =      1.689827    -0.000001    -0.018814     1.671013
	  178 D(18,6,1,20)    =   -142.340815    -0.000002    -0.089241  -142.430056
	  179 D(18,6,5,21)    =     -0.733441    -0.000003    -0.207321    -0.940762
	  180 D(18,6,5,22)    =    118.803150     0.000001     0.063158   118.866307
	  181 D(21,5,4,23)    =    -37.850783    -0.000001    -0.079666   -37.930449
	  182 D(21,5,4,24)    =     81.928087     0.000002    -0.067568    81.860519
	  183 D(22,5,4,23)    =   -157.597986    -0.000005    -0.115369  -157.713355
	  184 D(22,5,4,24)    =    -37.819116    -0.000002    -0.103271   -37.922387
	  185 D(23,4,3,25)    =     38.256283     0.000000    -0.075171    38.181113
	  186 D(23,4,3,26)    =    158.526152     0.000005     0.303077   158.829229
	  187 D(24,4,3,25)    =    -81.443309    -0.000004    -0.324137   -81.767445
	  188 D(24,4,3,26)    =     38.826560     0.000001     0.054111    38.880671
	 ---------------------------------------------------------------------------
	Successfully symmetrized geometry.

  ==> Convergence Check <==

  Measures of convergence in internal coordinates in au.
  Criteria marked as inactive (o), active & met (*), and active & unmet ( ).
  --------------------------------------------------------------------------------------------- ~
   Step     Total Energy     Delta E     MAX Force     RMS Force      MAX Disp      RMS Disp    ~
  --------------------------------------------------------------------------------------------- ~
    Convergence Criteria    1.00e-06 *    3.00e-04 *             o    1.20e-03 *             o  ~
  --------------------------------------------------------------------------------------------- ~
      1    -579.18511457   -5.79e+02      7.80e-02      8.83e-03 o    2.57e-01      2.80e-02 o  ~
  ---------------------------------------------------------------------------------------------

	Writing optimization data to binary file.
	Structure for next step:
	Cartesian Geometry (in Angstrom)
	    C     2.1933056599   0.5427790682  -1.8746239967
	    C     1.6558159097   0.4927500941  -0.4748253670
	    C     2.4310862250   1.3118926837   0.5515031367
	    C     3.5592253800   0.3917843494   1.0164614797
	    C     3.9241542687  -0.4268976814  -0.2227075466
	    C     2.6103589240  -0.5803092908  -0.9624021236
	    C     0.2271580763   0.2136065198  -0.2343102155
	    C    -0.1600989789  -0.6365589988   0.7966626074
	    C    -1.4943750794  -0.8800128707   1.0620491262
	    C    -2.4966509972  -0.2834297927   0.3048937266
	    C    -2.1147646380   0.5755782009  -0.7365770670
	    C    -0.7685596044   0.8121701894  -0.9876471173
	    H    -0.4864166959   1.4801651892  -1.7868032886
	    H    -2.8277167538   1.0687956979  -1.3584852116
	    O    -3.7692460539  -0.6468080193   0.7100840516
	    H    -1.7731280163  -1.5465967092   1.8624102538
	    H     0.5984749587  -1.1223570207   1.3916180920
	    H     2.2261024916  -1.5642746689  -1.1797855014
	    H     1.5123820657   0.2993222484  -2.6749344892
	    H     2.9302952309   1.2974060804  -2.1082521069
	    H     4.3571650526  -1.3888227917   0.0389639750
	    H     4.6547036979   0.1026822502  -0.8349995188
	    H     3.1684318707  -0.2822370064   1.7785762100
	    H     4.4058920144   0.9233459372   1.4460471269
	    H     1.7821859912   1.6160878163   1.3686615439
	    H     2.8312568917   2.2159287211   0.0906955542
	    C    -4.9595603061  -0.1798247161   0.1057064812
	    H    -5.7777886223  -0.6427050267   0.6438274636
	    H    -5.0632912126   0.9004222329   0.1657562965
	    H    -5.0333770601  -0.4536359028  -0.9435060362
			--------------------------
			 OPTKING Finished Execution 
			--------------------------

    Structure for next step:
    Molecular point group: c1
    Full point group: C1

    Geometry (in Angstrom), charge = 0, multiplicity = 1:

    C            2.179695909728     0.495878496827    -1.818124396837
    C            1.642206157417     0.445849522545    -0.418325761653
    C            2.417476475760     1.264992115368     0.608002746135
    C            3.545615635201     0.344883777395     1.072961090920
    C            3.910544525358    -0.473798256629    -0.166207940192
    C            2.596749175453    -0.627209866658    -0.905902520156
    C            0.213548318368     0.166705947069    -0.177810609189
    C           -0.173708738280    -0.683459574813     0.853162217807
    C           -1.507984844032    -0.926913447692     1.118548737607
    C           -2.510260765762    -0.330330367320     0.361393335007
    C           -2.128374405103     0.528677629635    -0.680077462624
    C           -0.782169366194     0.765269619107    -0.931147513931
    H           -0.500026456553     1.433264621450    -1.730303688360
    H           -2.841326523705     1.021895128582    -1.301985609688
    O           -3.782855827543    -0.693708595349     0.766583661644
    H           -1.786737782103    -1.593497288772     1.918909868367
    H            0.584865202251    -1.169257598609     1.448117704751
    H            2.212492741605    -1.611175248550    -1.123285898826
    H            1.498772312892     0.252421676045    -2.618434892431
    H            2.916685483613     1.250505511951    -2.051752507925
    H            4.343555310953    -1.435723370663     0.095463582394
    H            4.641093957426     0.055781677094    -0.778499914821
    H            3.154822124327    -0.329137581010     1.835075824259
    H            4.392282272920     0.876445367319     1.502546739785
    H            1.768576239453     1.569187249137     1.425161156512
    H            2.817647143995     2.169028156295     0.147195161774
    C           -4.973170084338    -0.226725290304     0.162206088821
    H           -5.791398403791    -0.689605602779     0.700327073363
    H           -5.076900991267     0.853521662865     0.222255904401
    H           -5.046986838665    -0.500536478070    -0.887006432681


Scratch directory: /local_scratch/pbs.4080546.pbs02/
gradient() will perform analytic gradient computation.

*** tstart() called on skystd18.palmetto.clemson.edu
*** at Fri Nov 26 00:31:01 2021

   => Loading Basis Set <=

    Name: CC-PVTZ
    Role: ORBITAL
    Keyword: BASIS
    atoms 1-12, 27            entry C          line   186 file /home/maxbuskirk/.conda/envs/psifour/share/psi4/basis/cc-pvtz.gbs 
    atoms 13-14, 16-26, 28-30 entry H          line    23 file /home/maxbuskirk/.conda/envs/psifour/share/psi4/basis/cc-pvtz.gbs 
    atoms 15                  entry O          line   262 file /home/maxbuskirk/.conda/envs/psifour/share/psi4/basis/cc-pvtz.gbs 


         ---------------------------------------------------------
                                   SCF
               by Justin Turney, Rob Parrish, Andy Simmonett
                          and Daniel G. A. Smith
                              RHF Reference
                        1 Threads,    500 MiB Core
         ---------------------------------------------------------

  ==> Geometry <==

    Molecular point group: c1
    Full point group: C1

    Geometry (in Angstrom), charge = 0, multiplicity = 1:

       Center              X                  Y                   Z               Mass       
    ------------   -----------------  -----------------  -----------------  -----------------
         C            2.179695909728     0.495878496827    -1.818124396837    12.000000000000
         C            1.642206157417     0.445849522545    -0.418325761653    12.000000000000
         C            2.417476475760     1.264992115368     0.608002746135    12.000000000000
         C            3.545615635201     0.344883777395     1.072961090920    12.000000000000
         C            3.910544525358    -0.473798256629    -0.166207940192    12.000000000000
         C            2.596749175453    -0.627209866658    -0.905902520156    12.000000000000
         C            0.213548318368     0.166705947069    -0.177810609189    12.000000000000
         C           -0.173708738280    -0.683459574813     0.853162217807    12.000000000000
         C           -1.507984844032    -0.926913447692     1.118548737607    12.000000000000
         C           -2.510260765762    -0.330330367320     0.361393335007    12.000000000000
         C           -2.128374405103     0.528677629635    -0.680077462624    12.000000000000
         C           -0.782169366194     0.765269619107    -0.931147513931    12.000000000000
         H           -0.500026456553     1.433264621450    -1.730303688360     1.007825032230
         H           -2.841326523705     1.021895128582    -1.301985609688     1.007825032230
         O           -3.782855827543    -0.693708595349     0.766583661644    15.994914619570
         H           -1.786737782103    -1.593497288772     1.918909868367     1.007825032230
         H            0.584865202251    -1.169257598609     1.448117704751     1.007825032230
         H            2.212492741605    -1.611175248550    -1.123285898826     1.007825032230
         H            1.498772312892     0.252421676045    -2.618434892431     1.007825032230
         H            2.916685483613     1.250505511951    -2.051752507925     1.007825032230
         H            4.343555310953    -1.435723370663     0.095463582394     1.007825032230
         H            4.641093957426     0.055781677094    -0.778499914821     1.007825032230
         H            3.154822124327    -0.329137581010     1.835075824259     1.007825032230
         H            4.392282272920     0.876445367319     1.502546739785     1.007825032230
         H            1.768576239453     1.569187249137     1.425161156512     1.007825032230
         H            2.817647143995     2.169028156295     0.147195161774     1.007825032230
         C           -4.973170084338    -0.226725290304     0.162206088821    12.000000000000
         H           -5.791398403791    -0.689605602779     0.700327073363     1.007825032230
         H           -5.076900991267     0.853521662865     0.222255904401     1.007825032230
         H           -5.046986838665    -0.500536478070    -0.887006432681     1.007825032230

  Running in c1 symmetry.

  Rotational constants: A =      0.07245  B =      0.01092  C =      0.01029 [cm^-1]
  Rotational constants: A =   2172.10560  B =    327.23162  C =    308.60998 [MHz]
  Nuclear repulsion =  862.698370877390971

  Charge       = 0
  Multiplicity = 1
  Electrons    = 102
  Nalpha       = 51
  Nbeta        = 51

  ==> Algorithm <==

  SCF Algorithm Type is DF.
  DIIS enabled.
  MOM disabled.
  Fractional occupation disabled.
  Guess Type is READ.
  Energy threshold   = 1.00e-10
  Density threshold  = 1.00e-10
  Integral threshold = 1.00e-12

  ==> Primary Basis <==

  Basis Set: CC-PVTZ
    Blend: CC-PVTZ
    Number of shells: 236
    Number of basis functions: 644
    Number of Cartesian functions: 730
    Spherical Harmonics?: true
    Max angular momentum: 3

   => Loading Basis Set <=

    Name: (CC-PVTZ AUX)
    Role: JKFIT
    Keyword: DF_BASIS_SCF
    atoms 1-12, 27            entry C          line   125 file /home/maxbuskirk/.conda/envs/psifour/share/psi4/basis/cc-pvtz-jkfit.gbs 
[...]
	  115 D(2,6,5,22)     =    -99.390749    -0.000000    -0.025152   -99.415901
	  116 D(2,7,8,9)      =    179.308150    -0.000000    -0.000935   179.307214
	  117 D(2,7,8,17)     =     -1.291115    -0.000000     0.010440    -1.280676
	  118 D(2,7,12,11)    =   -179.481411     0.000000    -0.000984  -179.482395
	  119 D(2,7,12,13)    =     -0.117717     0.000000     0.002781    -0.114936
	  120 D(3,2,1,6)      =     94.556808    -0.000000    -0.006772    94.550036
	  121 D(3,2,1,19)     =   -158.444470     0.000000     0.008903  -158.435567
	  122 D(3,2,1,20)     =    -13.183470    -0.000000    -0.015756   -13.199226
	  123 D(3,2,6,5)      =      1.437747     0.000000     0.032026     1.469773
	  124 D(3,2,6,18)     =    143.431328     0.000000     0.020857   143.452185
	  125 D(3,2,7,8)      =    -56.527277    -0.000000     0.024100   -56.503176
	  126 D(3,2,7,12)     =    122.484418     0.000000     0.044520   122.528938
	  127 D(3,4,5,6)      =    -33.034437     0.000000     0.005155   -33.029282
	  128 D(3,4,5,21)     =   -154.056650    -0.000000     0.006177  -154.050473
	  129 D(3,4,5,22)     =     86.012721     0.000000     0.009019    86.021740
	  130 D(4,3,2,6)      =    -21.971921    -0.000000    -0.029309   -22.001230
	  131 D(4,3,2,7)      =    119.440022    -0.000000    -0.044057   119.395965
	  132 D(4,5,6,18)     =   -122.037121    -0.000000     0.000556  -122.036565
	  133 D(5,4,3,25)     =    154.906947     0.000000     0.029415   154.936362
	  134 D(5,4,3,26)     =    -84.731872    -0.000000     0.019570   -84.712302
	  135 D(5,6,1,19)     =    155.390198     0.000000    -0.001087   155.389112
	  136 D(5,6,1,20)     =     11.798550     0.000000    -0.007810    11.790740
	  137 D(5,6,2,7)      =   -138.608717    -0.000000     0.025004  -138.583713
	  138 D(6,1,2,7)      =   -111.066435     0.000000     0.029672  -111.036763
	  139 D(6,2,1,19)     =    106.998722     0.000000     0.015675   107.014397
	  140 D(6,2,1,20)     =   -107.740279     0.000000    -0.008984  -107.749262
	  141 D(6,2,3,25)     =   -143.594200    -0.000000    -0.036472  -143.630672
	  142 D(6,2,3,26)     =     97.244559    -0.000000    -0.035847    97.208712
	  143 D(6,2,7,8)      =     78.712598     0.000000     0.015798    78.728396
	  144 D(6,2,7,12)     =   -102.275707     0.000000     0.036218  -102.239489
	  145 D(6,5,4,23)     =     82.669703     0.000000     0.002559    82.672262
	  146 D(6,5,4,24)     =   -157.397025     0.000000     0.006901  -157.390124
	  147 D(7,2,1,19)     =     -4.067713     0.000000     0.045348    -4.022366
	  148 D(7,2,1,20)     =    141.193286     0.000000     0.020689   141.213975
	  149 D(7,2,3,25)     =     -2.182257    -0.000000    -0.051221    -2.233478
	  150 D(7,2,3,26)     =   -121.343498    -0.000000    -0.050595  -121.394094
	  151 D(7,2,6,18)     =      3.384864    -0.000000     0.013835     3.398700
	  152 D(7,8,9,10)     =      0.085894    -0.000000    -0.007260     0.078634
	  153 D(7,8,9,16)     =    179.701473    -0.000000    -0.004297   179.697176
	  154 D(7,12,11,10)   =      0.316088     0.000000     0.009565     0.325653
	  155 D(7,12,11,14)   =   -179.982671     0.000000     0.020561  -179.962109
	  156 D(8,7,12,11)    =     -0.451074     0.000000     0.019312    -0.431762
	  157 D(8,7,12,13)    =    178.912620     0.000000     0.023077   178.935697
	  158 D(8,9,10,11)    =     -0.228576     0.000000     0.036533    -0.192042
	  159 D(8,9,10,15)    =    179.825597    -0.000001    -0.061378   179.764219
	  160 D(9,8,7,12)     =      0.248893    -0.000000    -0.020449     0.228444
	  161 D(9,10,11,12)   =      0.032222    -0.000000    -0.037512    -0.005289
	  162 D(9,10,11,14)   =   -179.663250    -0.000000    -0.048719  -179.711969
	  163 D(9,10,15,27)   =    179.868457     0.000001     0.085265   179.953722
	  164 D(10,9,8,17)    =   -179.315560    -0.000000    -0.018625  -179.334185
	  165 D(10,11,12,13)  =   -179.049627     0.000000     0.005795  -179.043832
	  166 D(10,15,27,28)  =    179.945110     0.000000    -0.010951   179.934159
	  167 D(10,15,27,29)  =    -61.154066    -0.000000    -0.017114   -61.171181
	  168 D(10,15,27,30)  =     61.050054    -0.000000    -0.019418    61.030636
	  169 D(11,10,9,16)   =   -179.855363     0.000000     0.033660  -179.821704
	  170 D(11,10,15,27)  =     -0.074139    -0.000000    -0.018493    -0.092631
	  171 D(12,7,8,17)    =    179.649628    -0.000000    -0.009074   179.640554
	  172 D(12,11,10,15)  =    179.972925     0.000001     0.069655   180.042580
	  173 D(13,12,11,14)  =      0.651615     0.000000     0.016791     0.668405
	  174 D(14,11,10,15)  =      0.277453     0.000000     0.058448     0.335901
	  175 D(15,10,9,16)   =      0.198810    -0.000001    -0.064251     0.134558
	  176 D(16,9,8,17)    =      0.300019    -0.000000    -0.015662     0.284357
	  177 D(18,6,1,19)    =      0.821899    -0.000000    -0.025998     0.795901
	  178 D(18,6,1,20)    =   -142.769750    -0.000000    -0.032721  -142.802471
	  179 D(18,6,5,21)    =     -0.823954     0.000000    -0.002464    -0.826418
	  180 D(18,6,5,22)    =    118.994268     0.000000    -0.001552   118.992716
	  181 D(21,5,4,23)    =    -38.352510    -0.000000     0.003581   -38.348929
	  182 D(21,5,4,24)    =     81.580762    -0.000000     0.007924    81.588686
	  183 D(22,5,4,23)    =   -158.283139    -0.000000     0.006422  -158.276716
	  184 D(22,5,4,24)    =    -38.349867     0.000000     0.010765   -38.339102
	  185 D(23,4,3,25)    =     39.257494     0.000000     0.032705    39.290199
	  186 D(23,4,3,26)    =    159.618674    -0.000000     0.022861   159.641535
	  187 D(24,4,3,25)    =    -80.694975     0.000000     0.028536   -80.666439
	  188 D(24,4,3,26)    =     39.666206    -0.000000     0.018691    39.684897
	 ---------------------------------------------------------------------------
	Successfully symmetrized geometry.

  ==> Convergence Check <==

  Measures of convergence in internal coordinates in au.
  Criteria marked as inactive (o), active & met (*), and active & unmet ( ).
  ---------------------------------------------------------------------------------------------
   Step     Total Energy     Delta E     MAX Force     RMS Force      MAX Disp      RMS Disp   
  ---------------------------------------------------------------------------------------------
    Convergence Criteria    1.00e-06 *    3.00e-04 *             o    1.20e-03 *             o
  ---------------------------------------------------------------------------------------------
     10    -579.19825413   -7.96e-07 *    8.57e-05 *    1.60e-05 o    1.49e-03      3.45e-04 o  ~
  ---------------------------------------------------------------------------------------------


  **** Optimization is complete! (in 10 steps) ****

  ==> Optimization Summary <==

  Measures of convergence in internal coordinates in au.
  --------------------------------------------------------------------------------------------------------------- ~
   Step         Total Energy             Delta E       MAX Force       RMS Force        MAX Disp        RMS Disp  ~
  --------------------------------------------------------------------------------------------------------------- ~
      1    -579.185114572278   -579.185114572278      0.07800169      0.00882532      0.25702167      0.02803189  ~
      2    -579.191898399189     -0.006783826912      0.04016182      0.00445920      0.08174207      0.00898229  ~
      3    -579.196993581618     -0.005095182429      0.02018085      0.00206635      0.03937308      0.00606428  ~
      4    -579.198027470623     -0.001033889004      0.00680740      0.00072723      0.03195430      0.00629594  ~
      5    -579.198136934922     -0.000109464299      0.00440635      0.00046618      0.01646182      0.00303446  ~
      6    -579.198192832272     -0.000055897351      0.00041671      0.00005888      0.04909312      0.00843350  ~
      7    -579.198219336225     -0.000026503952      0.00105990      0.00011293      0.05321101      0.00911643  ~
      8    -579.198243201848     -0.000023865623      0.00066847      0.00007353      0.05470019      0.00911487  ~
      9    -579.198253334148     -0.000010132301      0.00023263      0.00003438      0.00340512      0.00074764  ~
     10    -579.198254130553     -0.000000796405      0.00008574      0.00001601      0.00148815      0.00034495  ~
  --------------------------------------------------------------------------------------------------------------- ~

	Writing optimization data to binary file.
	Final energy is   -579.1982541305533
	Final (previous) structure:
	Cartesian Geometry (in Angstrom)
	    C     2.0462427158   0.6204573302  -1.8868423607
	    C     1.5906310511   0.4983451156  -0.4671077283
	    C     2.4244131957   1.2686827694   0.5519246126
	    C     3.5730237439   0.3254930962   0.9063806849
	    C     3.8678385105  -0.4259521255  -0.3925403979
	    C     2.5158986764  -0.5437697092  -1.0647439746
	    C     0.1843894463   0.1926744783  -0.1482639179
	    C    -0.1233711046  -0.5140554215   1.0165458799
	    C    -1.4282731724  -0.8062310725   1.3552851625
	    C    -2.4740769079  -0.3979198831   0.5303633429
	    C    -2.1906949877   0.3086992972  -0.6312233998
	    C    -0.8687140938   0.5974996447  -0.9540318059
	    H    -0.6611997328   1.1598003885  -1.8498062353
	    H    -2.9754328423   0.6415470713  -1.2844189397
	    O    -3.7222765666  -0.7350033183   0.9453159819
	    H    -1.6657233958  -1.3550793641   2.2506013247
	    H     0.6757178234  -0.8470106955   1.6603634914
	    H     2.1210321409  -1.5148638852  -1.3118456678
	    H     1.3317855613   0.4126172480  -2.6651865060
	    H     2.7657272757   1.3905855264  -2.1165680711
	    H     4.3133854355  -1.3982556981  -0.2096457784
	    H     4.5605861966   0.1386679242  -1.0143912641
	    H     3.2185268284  -0.3896549642   1.6459998421
	    H     4.4390488413   0.8326847240   1.3220824956
	    H     1.8285364272   1.5400092333   1.4173213609
	    H     2.8035819365   2.1899492314   0.1125118479
	    C    -4.7880169696  -0.3228250715   0.1170543873
	    H    -5.6928146969  -0.6731986756   0.5950112870
	    H    -4.8242706910   0.7609455198   0.0275116510
	    H    -4.7113723938  -0.7622495273  -0.8754296746
	Saving final (previous) structure.
	Cleaning optimization helper files.
			--------------------------
			 OPTKING Finished Execution 
			--------------------------

    Final optimized geometry and variables:
    Molecular point group: c1
    Full point group: C1

    Geometry (in Angstrom), charge = 0, multiplicity = 1:

    C            2.046242723806     0.620457332605    -1.886842368099
    C            1.590631057324     0.498345117587    -0.467107730111
    C            2.424413205241     1.268682774411     0.551924614814
    C            3.573023757945     0.325493097479     0.906380688480
    C            3.867838525690    -0.425952127169    -0.392540399399
    C            2.515898686281    -0.543769711387    -1.064743978786
    C            0.184389447026     0.192674479085    -0.148263918527
    C           -0.123371105095    -0.514055423520     1.016545883933
    C           -1.428273177966    -0.806231075644     1.355285167811
    C           -2.474076917606    -0.397919884673     0.530363345005
    C           -2.190694996286     0.308699298400    -0.631223402309
    C           -0.868714097230     0.597499647051    -0.954031809625
    H           -0.661199735355     1.159800393108    -1.849806242611
    H           -2.975432854018     0.641547073831    -1.284418944733
    O           -3.722276581240    -0.735003321213     0.945315985574
    H           -1.665723402384    -1.355079369423     2.250601333588
    H            0.675717826020    -0.847010698832     1.660363497902
    H            2.121032149213    -1.514863891168    -1.311845672977
    H            1.331785566563     0.412617249601    -2.665186516523
    H            2.765727286610     1.390585531900    -2.116568079466
    H            4.313385452496    -1.398255703551    -0.209645779226
    H            4.560586214572     0.138667924794    -1.014391268079
    H            3.218526841039    -0.389654965732     1.645999848619
    H            4.439048858749     0.832684727235     1.322082500798
    H            1.828536434423     1.540009239373     1.417321366519
    H            2.803581947532     2.189949240053     0.112511848343
    C           -4.788016988466    -0.322825072728     0.117054387801
    H           -5.692814719229    -0.673198678267     0.595011289352
    H           -4.824270709962     0.760945522745     0.027511651090
    H           -4.711372412361    -0.762249530319    -0.875429678021

	Removing binary optimization data file.
	Cleaning optimization helper files.


Properties will be evaluated at   0.000000,   0.000000,   0.000000 [a0]
OEProp: No title given, name of density matrix used for the following properties is 'DF-MP2 relaxed density'
  Mulliken Charges: (a.u.)
   Center  Symbol    Alpha    Beta     Spin     Total
       1     C     3.21336  3.21336  0.00000 -0.42671
       2     C     2.97864  2.97864  0.00000  0.04272
       3     C     3.14579  3.14579  0.00000 -0.29158
       4     C     3.11788  3.11788  0.00000 -0.23576
       5     C     3.13740  3.13740  0.00000 -0.27480
       6     C     3.05074  3.05074  0.00000 -0.10148
       7     C     2.94328  2.94328  0.00000  0.11343
       8     C     3.07755  3.07755  0.00000 -0.15510
       9     C     3.09892  3.09892  0.00000 -0.19784
      10     C     2.89224  2.89224  0.00000  0.21552
      11     C     3.12555  3.12555  0.00000 -0.25110
      12     C     3.08656  3.08656  0.00000 -0.17312
      13     H     0.42301  0.42301  0.00000  0.15397
      14     H     0.42453  0.42453  0.00000  0.15094
      15     O     4.10836  4.10836  0.00000 -0.21672
      16     H     0.42458  0.42458  0.00000  0.15085
      17     H     0.42234  0.42234  0.00000  0.15532
      18     H     0.42451  0.42451  0.00000  0.15097
      19     H     0.42830  0.42830  0.00000  0.14341
      20     H     0.43584  0.43584  0.00000  0.12832
      21     H     0.43327  0.43327  0.00000  0.13347
      22     H     0.43793  0.43793  0.00000  0.12414
      23     H     0.44103  0.44103  0.00000  0.11795
      24     H     0.43462  0.43462  0.00000  0.13077
      25     H     0.43148  0.43148  0.00000  0.13705
      26     H     0.43685  0.43685  0.00000  0.12631
      27     C     3.09575  3.09575  0.00000 -0.19149
      28     H     0.42841  0.42841  0.00000  0.14319
      29     H     0.45056  0.45056  0.00000  0.09887
      30     H     0.45074  0.45074  0.00000  0.09853

   Total alpha = 51.00000, Total beta = 51.00000, Total charge = -0.00000

    Molecular point group: c1
    Full point group: C1

    Geometry (in Angstrom), charge = 0, multiplicity = 1:

       Center              X                  Y                   Z               Mass       
    ------------   -----------------  -----------------  -----------------  -----------------
         C            2.046242723806     0.620457332605    -1.886842368099    12.000000000000
         C            1.590631057324     0.498345117587    -0.467107730111    12.000000000000
         C            2.424413205241     1.268682774411     0.551924614814    12.000000000000
         C            3.573023757945     0.325493097479     0.906380688480    12.000000000000
         C            3.867838525690    -0.425952127169    -0.392540399399    12.000000000000
         C            2.515898686281    -0.543769711387    -1.064743978786    12.000000000000
         C            0.184389447026     0.192674479085    -0.148263918527    12.000000000000
         C           -0.123371105095    -0.514055423520     1.016545883933    12.000000000000
         C           -1.428273177966    -0.806231075644     1.355285167811    12.000000000000
         C           -2.474076917606    -0.397919884673     0.530363345005    12.000000000000
         C           -2.190694996286     0.308699298400    -0.631223402309    12.000000000000
         C           -0.868714097230     0.597499647051    -0.954031809625    12.000000000000
         H           -0.661199735355     1.159800393108    -1.849806242611     1.007825032230
         H           -2.975432854018     0.641547073831    -1.284418944733     1.007825032230
         O           -3.722276581240    -0.735003321213     0.945315985574    15.994914619570
         H           -1.665723402384    -1.355079369423     2.250601333588     1.007825032230
         H            0.675717826020    -0.847010698832     1.660363497902     1.007825032230
         H            2.121032149213    -1.514863891168    -1.311845672977     1.007825032230
         H            1.331785566563     0.412617249601    -2.665186516523     1.007825032230
         H            2.765727286610     1.390585531900    -2.116568079466     1.007825032230
         H            4.313385452496    -1.398255703551    -0.209645779226     1.007825032230
         H            4.560586214572     0.138667924794    -1.014391268079     1.007825032230
         H            3.218526841039    -0.389654965732     1.645999848619     1.007825032230
         H            4.439048858749     0.832684727235     1.322082500798     1.007825032230
         H            1.828536434423     1.540009239373     1.417321366519     1.007825032230
         H            2.803581947532     2.189949240053     0.112511848343     1.007825032230
         C           -4.788016988466    -0.322825072728     0.117054387801    12.000000000000
         H           -5.692814719229    -0.673198678267     0.595011289352     1.007825032230
         H           -4.824270709962     0.760945522745     0.027511651090     1.007825032230
         H           -4.711372412361    -0.762249530319    -0.875429678021     1.007825032230



  Variable Map:
  ----------------------------------------------------------------------------
  "CURRENT CORRELATION ENERGY"           =>      -2.587446364865
  "CURRENT DIPOLE X"                     =>      -0.427976784726
  "CURRENT DIPOLE Y"                     =>       0.454872184591
  "CURRENT DIPOLE Z"                     =>      -0.886480261538
  "CURRENT ENERGY"                       =>    -579.198254130553
  "CURRENT REFERENCE ENERGY"             =>    -576.610807765688
  "CUSTOM SCS-MP2 CORRELATION ENERGY"    =>      -2.564221277889
  "CUSTOM SCS-MP2 TOTAL ENERGY"          =>    -579.175029043577
  "HF TOTAL ENERGY"                      =>    -576.610807765688
  "MP2 CORRELATION ENERGY"               =>      -2.587446364865
  "MP2 DOUBLES ENERGY"                   =>      -2.587446364865
  "MP2 OPPOSITE-SPIN CORRELATION ENERGY" =>      -1.963545180308
  "MP2 SAME-SPIN CORRELATION ENERGY"     =>      -0.623901184557
  "MP2 SINGLES ENERGY"                   =>      -0.000000000000
  "MP2 TOTAL ENERGY"                     =>    -579.198254130553
  "NUCLEAR REPULSION ENERGY"             =>     868.183029634049
  "ONE-ELECTRON ENERGY"                  =>   -2505.578113480175
  "OPTIMIZATION ITERATIONS"              =>      10.000000000000
  "PCM POLARIZATION ENERGY"              =>       0.000000000000
  "PE ENERGY"                            =>       0.000000000000
  "SCF DIPOLE X"                         =>      -0.427976784726
  "SCF DIPOLE Y"                         =>       0.454872184591
  "SCF DIPOLE Z"                         =>      -0.886480261538
  "SCF ITERATION ENERGY"                 =>    -576.610807765688
  "SCF ITERATIONS"                       =>      12.000000000000
  "SCF TOTAL ENERGY"                     =>    -576.610807765688
  "SCS-MP2 CORRELATION ENERGY"           =>      -2.564221277889
  "SCS-MP2 TOTAL ENERGY"                 =>    -579.175029043577
  "TWO-ELECTRON ENERGY"                  =>    1060.784276080438



    Psi4 stopped on: Friday, 26 November 2021 02:58AM
    Psi4 wall time for execution: 2:43:42.11

*** Psi4 exiting successfully. Buy a developer a beer!
