
    -----------------------------------------------------------------------
          Psi4: An Open-Source Ab Initio Electronic Structure Package
                               Psi4 1.4 release

                         Git: Rev {HEAD} 9485035 


    D. G. A. Smith, L. A. Burns, A. C. Simmonett, R. M. Parrish,
    M. C. Schieber, R. Galvelis, P. Kraus, H. Kruse, R. Di Remigio,
    A. Alenaizan, A. M. James, S. Lehtola, J. P. Misiewicz, M. Scheurer,
    R. A. Shaw, J. B. Schriber, Y. Xie, Z. L. Glick, D. A. Sirianni,
    J. S. O'Brien, J. M. Waldrop, A. Kumar, E. G. Hohenstein,
    B. P. Pritchard, B. R. Brooks, H. F. Schaefer III, A. Yu. Sokolov,
    K. Patkowski, A. E. DePrince III, U. Bozkaya, R. A. King,
    F. A. Evangelista, J. M. Turney, T. D. Crawford, C. D. Sherrill,
    J. Chem. Phys. 152(18) 184108 (2020). https://doi.org/10.1063/5.0006002

                            Additional Code Authors
    E. T. Seidl, C. L. Janssen, E. F. Valeev, M. L. Leininger,
    J. F. Gonthier, R. M. Richard, H. R. McAlexander, M. Saitow, X. Wang,
    P. Verma, and M. H. Lechner

             Previous Authors, Complete List of Code Contributors,
                       and Citations for Specific Modules
    https://github.com/psi4/psi4/blob/master/codemeta.json
    https://github.com/psi4/psi4/graphs/contributors
    http://psicode.org/psi4manual/master/introduction.html#citing-psifour

    -----------------------------------------------------------------------


    Psi4 started on: Saturday, 11 December 2021 05:32PM

    Process ID: 563806
    Host:       skystd35.palmetto.clemson.edu
    PSIDATADIR: /home/maxbuskirk/.conda/envs/psifour/share/psi4
    Memory:     500.0 MiB
    Threads:    1
    
  ==> Input File <==

--------------------------------------------------------------------------
molecule mol {
0 1
 C     1.511290    -0.280966    -0.092593
 C    -0.000000     0.000000     0.000000
 C    -0.605968    -1.226439    -0.664954
 C     0.319060    -1.848819    -1.451355
 C     1.653820    -1.134973    -1.365322
 C    -2.027094    -1.583009    -0.507457
 C    -2.438238    -2.928025    -0.366876
 C    -3.794208    -3.253627    -0.211477
 C    -4.766046    -2.240264    -0.182231
 C    -4.369571    -0.897483    -0.299270
 C    -3.014139    -0.572542    -0.452922
 C     0.120138    -2.993149    -2.399423
 H    -2.715369     0.476287    -0.545440
 H    -5.118805    -0.100426    -0.268581
Cl    -6.447141    -2.643405     0.015246
 H    -4.091097    -4.301038    -0.099616
 H    -1.681648    -3.717845    -0.347819
 H     1.812305    -0.886836     0.778541
 H     2.127353     0.631886    -0.103726
 H     2.509857    -1.831293    -1.328975
 H     1.794964    -0.502471    -2.264944
 H    -0.944311    -3.224044    -2.552012
 H     0.568816    -2.749556    -3.378502
 H     0.625600    -3.906462    -2.037287
 H    -0.354002     0.144380     1.034324
 H    -0.267853     0.913064    -0.567140
}

set scf_type df
set basis cc-pVDZ
set reference rhf

mol.update_geometry()
mol.symmetrize(1e-3)

e, wfn = optimize('mp2', return_wfn=True)
oeprop(wfn, "MULLIKEN_CHARGES")
mol.print_out()
print_variables()
--------------------------------------------------------------------------

Scratch directory: /local_scratch/pbs.4129832.pbs02/
gradient() will perform analytic gradient computation.

*** tstart() called on skystd35.palmetto.clemson.edu
*** at Sat Dec 11 17:32:33 2021

   => Loading Basis Set <=

    Name: CC-PVDZ
    Role: ORBITAL
    Keyword: BASIS
    atoms 1-12         entry C          line   138 file /home/maxbuskirk/.conda/envs/psifour/share/psi4/basis/cc-pvdz.gbs 
    atoms 13-14, 16-26 entry H          line    22 file /home/maxbuskirk/.conda/envs/psifour/share/psi4/basis/cc-pvdz.gbs 
    atoms 15           entry CL         line   658 file /home/maxbuskirk/.conda/envs/psifour/share/psi4/basis/cc-pvdz.gbs 


         ---------------------------------------------------------
                                   SCF
               by Justin Turney, Rob Parrish, Andy Simmonett
                          and Daniel G. A. Smith
                              RHF Reference
                        1 Threads,    500 MiB Core
         ---------------------------------------------------------

  ==> Geometry <==

    Molecular point group: c1
    Full point group: C1

    Geometry (in Angstrom), charge = 0, multiplicity = 1:

       Center              X                  Y                   Z               Mass       
    ------------   -----------------  -----------------  -----------------  -----------------
         C            3.802945809143     1.484800783811     0.465358189183    12.000000000000
         C            2.291655809143     1.765766783811     0.557951189183    12.000000000000
         C            1.685687809143     0.539327783811    -0.107002810817    12.000000000000
         C            2.610715809143    -0.083052216189    -0.893403810817    12.000000000000
         C            3.945475809143     0.630793783811    -0.807370810817    12.000000000000
         C            0.264561809143     0.182757783811     0.050494189183    12.000000000000
         C           -0.146582190857    -1.162258216189     0.191075189183    12.000000000000
         C           -1.502552190857    -1.487860216189     0.346474189183    12.000000000000
         C           -2.474390190857    -0.474497216189     0.375720189183    12.000000000000
         C           -2.077915190857     0.868283783811     0.258681189183    12.000000000000
         C           -0.722483190857     1.193224783811     0.105029189183    12.000000000000
         C            2.411793809143    -1.227382216189    -1.841471810817    12.000000000000
         H           -0.423713190857     2.242053783811     0.012511189183     1.007825032230
         H           -2.827149190857     1.665340783811     0.289370189183     1.007825032230
         CL          -4.155485190857    -0.877638216189     0.573197189183    34.968852682000
         H           -1.799441190857    -2.535271216189     0.458335189183     1.007825032230
         H            0.610007809143    -1.952078216189     0.210132189183     1.007825032230
         H            4.103960809143     0.878930783811     1.336492189183     1.007825032230
         H            4.419008809143     2.397652783811     0.454225189183     1.007825032230
         H            4.801512809143    -0.065526216189    -0.771023810817     1.007825032230
         H            4.086619809143     1.263295783811    -1.706992810817     1.007825032230
         H            1.347344809143    -1.458277216189    -1.994060810817     1.007825032230
         H            2.860471809143    -0.983789216189    -2.820550810817     1.007825032230
         H            2.917255809143    -2.140695216189    -1.479335810817     1.007825032230
         H            1.937653809143     1.910146783811     1.592275189183     1.007825032230
         H            2.023802809143     2.678830783811    -0.009188810817     1.007825032230

  Running in c1 symmetry.

  Rotational constants: A =      0.06655  B =      0.01045  C =      0.00944 [cm^-1]
  Rotational constants: A =   1994.97437  B =    313.41822  C =    283.15217 [MHz]
  Nuclear repulsion =  812.981678357297255

  Charge       = 0
  Multiplicity = 1
  Electrons    = 102
  Nalpha       = 51
  Nbeta        = 51

  ==> Algorithm <==

  SCF Algorithm Type is DF.
  DIIS enabled.
  MOM disabled.
  Fractional occupation disabled.
  Guess Type is SAD.
  Energy threshold   = 1.00e-10
  Density threshold  = 1.00e-10
  Integral threshold = 1.00e-12

  ==> Primary Basis <==

  Basis Set: CC-PVDZ
    Blend: CC-PVDZ
    Number of shells: 119
    Number of basis functions: 251
    Number of Cartesian functions: 264
    Spherical Harmonics?: true
    Max angular momentum: 2

   => Loading Basis Set <=

    Name: (CC-PVDZ AUX)
    Role: JKFIT
    Keyword: DF_BASIS_SCF
    atoms 1-12         entry C          line   121 file /home/maxbuskirk/.conda/envs/psifour/share/psi4/basis/cc-pvdz-jkfit.gbs 
    atoms 13-14, 16-26 entry H          line    51 file /home/maxbuskirk/.conda/envs/psifour/share/psi4/basis/cc-pvdz-jkfit.gbs 
    atoms 15           entry CL         line   667 file /home/maxbuskirk/.conda/envs/psifour/share/psi4/basis/cc-pvdz-jkfit.gbs 

  ==> Integral Setup <==

  ==> DiskDFJK: Density-Fitted J/K Matrices <==

    J tasked:                  Yes
    K tasked:                  Yes
    wK tasked:                  No
    OpenMP threads:              1
    Integrals threads:           1
    Memory [MiB]:              375
    Algorithm:                Core
    Integral Cache:           NONE
    Schwarz Cutoff:          1E-12
    Fitting Condition:       1E-10

   => Auxiliary Basis Set <=

  Basis Set: (CC-PVDZ AUX)
    Blend: CC-PVDZ-JKFIT
    Number of shells: 441
    Number of basis functions: 1251
    Number of Cartesian functions: 1427
    Spherical Harmonics?: true
    Max angular momentum: 3

  Minimum eigenvalue in the overlap matrix is 3.0815220701E-04.
  Reciprocal condition number of the overlap matrix is 4.7738696155E-05.
    Using symmetric orthogonalization.

  ==> Pre-Iterations <==

  SCF Guess: Superposition of Atomic Densities via on-the-fly atomic UHF (no occupation information).

   -------------------------
    Irrep   Nso     Nmo    
   -------------------------
     A        251     251 
   -------------------------
    Total     251     251
   -------------------------

  ==> Iterations <==

                           Total Energy        Delta E     RMS |[F,P]|

   @DF-RHF iter SAD:  -920.96806549076791   -9.20968e+02   0.00000e+00 
   @DF-RHF iter   1:  -921.25839937951878   -2.90334e-01   2.34979e-03 DIIS
   @DF-RHF iter   2:  -921.47190712322549   -2.13508e-01   1.08442e-03 DIIS
   @DF-RHF iter   3:  -921.51217251989078   -4.02654e-02   2.92091e-04 DIIS
   @DF-RHF iter   4:  -921.51635123055178   -4.17871e-03   1.34933e-04 DIIS
   @DF-RHF iter   5:  -921.51704121144542   -6.89981e-04   2.38777e-05 DIIS
   @DF-RHF iter   6:  -921.51707793281685   -3.67214e-05   9.52097e-06 DIIS
   @DF-RHF iter   7:  -921.51708449661817   -6.56380e-06   3.72692e-06 DIIS
   @DF-RHF iter   8:  -921.51708615263567   -1.65602e-06   1.92945e-06 DIIS
   @DF-RHF iter   9:  -921.51708672989298   -5.77257e-07   8.50679e-07 DIIS
   @DF-RHF iter  10:  -921.51708685889218   -1.28999e-07   3.28112e-07 DIIS
   @DF-RHF iter  11:  -921.51708687734026   -1.84481e-08   1.22080e-07 DIIS
   @DF-RHF iter  12:  -921.51708687911514   -1.77488e-09   4.32485e-08 DIIS
   @DF-RHF iter  13:  -921.51708687928499   -1.69848e-10   1.52741e-08 DIIS
   @DF-RHF iter  14:  -921.51708687930773   -2.27374e-11   6.48866e-09 DIIS
   @DF-RHF iter  15:  -921.51708687930807   -3.41061e-13   2.64776e-09 DIIS
   @DF-RHF iter  16:  -921.51708687931136   -3.29692e-12   1.17010e-09 DIIS
   @DF-RHF iter  17:  -921.51708687931091    4.54747e-13   4.69233e-10 DIIS
   @DF-RHF iter  18:  -921.51708687931102   -1.13687e-13   1.55377e-10 DIIS
   @DF-RHF iter  19:  -921.51708687931193   -9.09495e-13   5.70974e-11 DIIS
  Energy and wave function converged.


  ==> Post-Iterations <==

    Orbital Energies [Eh]
    ---------------------

    Doubly Occupied:                                                      

       1A   -104.832451     2A    -11.305375     3A    -11.257755  
       4A    -11.257372     5A    -11.257275     6A    -11.252983  
       7A    -11.252754     8A    -11.242654     9A    -11.236089  
      10A    -11.235640    11A    -11.234238    12A    -11.234055  
      13A    -11.230935    14A    -10.559272    15A     -8.026932  
      16A     -8.023489    17A     -8.023387    18A     -1.185322  
      19A     -1.151624    20A     -1.111227    21A     -1.026054  
      22A     -1.019010    23A     -1.010083    24A     -0.942739  
      25A     -0.905102    26A     -0.842465    27A     -0.817845  
      28A     -0.785548    29A     -0.724316    30A     -0.660525  
      31A     -0.646250    32A     -0.644496    33A     -0.641469  
      34A     -0.618128    35A     -0.594333    36A     -0.575951  
      37A     -0.570277    38A     -0.547260    39A     -0.542944  
      40A     -0.535546    41A     -0.518665    42A     -0.502947  
      43A     -0.486754    44A     -0.483865    45A     -0.481382  
      46A     -0.467956    47A     -0.457974    48A     -0.450286  
      49A     -0.362448    50A     -0.345621    51A     -0.294931  

    Virtual:                                                              

      52A      0.103285    53A      0.120608    54A      0.170653  
      55A      0.184438    56A      0.189926    57A      0.195869  
      58A      0.211873    59A      0.226041    60A      0.228641  
      61A      0.246937    62A      0.253339    63A      0.260848  
      64A      0.266473    65A      0.281583    66A      0.284484  
      67A      0.295929    68A      0.312409    69A      0.327378  
      70A      0.357022    71A      0.384287    72A      0.389144  
      73A      0.399086    74A      0.424066    75A      0.428545  
      76A      0.442139    77A      0.474240    78A      0.487626  
      79A      0.510947    80A      0.567546    81A      0.588799  
      82A      0.596372    83A      0.616955    84A      0.622234  
      85A      0.637335    86A      0.652086    87A      0.664320  
      88A      0.670770    89A      0.679550    90A      0.688707  
      91A      0.703479    92A      0.710299    93A      0.715433  
      94A      0.719276    95A      0.725784    96A      0.736171  
      97A      0.740221    98A      0.751903    99A      0.762197  
     100A      0.780903   101A      0.782651   102A      0.798013  
     103A      0.823071   104A      0.828901   105A      0.833885  
     106A      0.848844   107A      0.852201   108A      0.855347  
     109A      0.868304   110A      0.875925   111A      0.881675  
     112A      0.883791   113A      0.891519   114A      0.896406  
     115A      0.901388   116A      0.911629   117A      0.915204  
     118A      0.921896   119A      0.923795   120A      0.928393  
     121A      0.939906   122A      0.946157   123A      0.950668  
     124A      0.971925   125A      0.979979   126A      0.984674  
     127A      0.993890   128A      1.006731   129A      1.018143  
     130A      1.033093   131A      1.064112   132A      1.075042  
     133A      1.112764   134A      1.130820   135A      1.138168  
     136A      1.150786   137A      1.165887   138A      1.195254  
     139A      1.197385   140A      1.228032   141A      1.232346  
     142A      1.260723   143A      1.283319   144A      1.284741  
     145A      1.295906   146A      1.315926   147A      1.329059  
     148A      1.346304   149A      1.372946   150A      1.379241  
     151A      1.421218   152A      1.457869   153A      1.470152  
     154A      1.475823   155A      1.481620   156A      1.493686  
     157A      1.508991   158A      1.537817   159A      1.557459  
     160A      1.574664   161A      1.611045   162A      1.624276  
     163A      1.636018   164A      1.646927   165A      1.686521  
     166A      1.700097   167A      1.722250   168A      1.746918  
     169A      1.757496   170A      1.769733   171A      1.801361  
     172A      1.805514   173A      1.809758   174A      1.828583  
     175A      1.838799   176A      1.846119   177A      1.862284  
     178A      1.875313   179A      1.882960   180A      1.897115  
     181A      1.903792   182A      1.913179   183A      1.917297  
     184A      1.926223   185A      1.930244   186A      1.942562  
     187A      1.964189   188A      1.966245   189A      1.974674  
     190A      2.005215   191A      2.010256   192A      2.021233  
     193A      2.026555   194A      2.028298   195A      2.043393  
     196A      2.055750   197A      2.063324   198A      2.071053  
     199A      2.084796   200A      2.096083   201A      2.106681  
     202A      2.113465   203A      2.127219   204A      2.135299  
     205A      2.158174   206A      2.178560   207A      2.188584  
     208A      2.211103   209A      2.232492   210A      2.249900  
     211A      2.264425   212A      2.271229   213A      2.289017  
     214A      2.307671   215A      2.337202   216A      2.367208  
     217A      2.392692   218A      2.401054   219A      2.407653  
     220A      2.421540   221A      2.432750   222A      2.453752  
     223A      2.464714   224A      2.494501   225A      2.519588  
     226A      2.530816   227A      2.545168   228A      2.615875  
     229A      2.645872   230A      2.656001   231A      2.670905  
     232A      2.717122   233A      2.723172   234A      2.751798  
     235A      2.762208   236A      2.768512   237A      2.798416  
     238A      2.820713   239A      2.824731   240A      2.875429  
     241A      2.917759   242A      2.937184   243A      2.949200  
     244A      2.987133   245A      3.003158   246A      3.022085  
     247A      3.055777   248A      3.112494   249A      3.181478  
     250A      3.257451   251A      3.761995  

    Final Occupation by Irrep:
              A 
    DOCC [    51 ]

  @DF-RHF Final Energy:  -921.51708687931193

   => Energetics <=

    Nuclear Repulsion Energy =            812.9816783572972554
    One-Electron Energy =               -2874.1695332617427994
    Two-Electron Energy =                1139.6707680251333841
    Total Energy =                       -921.5170868793120462

Computation Completed


Properties will be evaluated at   0.000000,   0.000000,   0.000000 [a0]

Properties computed using the SCF density matrix

  Nuclear Dipole Moment: [e a0]
     X:    26.3571      Y:     4.4601      Z:    -4.6757

  Electronic Dipole Moment: [e a0]
     X:   -25.3929      Y:    -4.2980      Z:     4.4681

  Dipole Moment: [e a0]
     X:     0.9642      Y:     0.1621      Z:    -0.2075     Total:     0.9995

  Dipole Moment: [D]
     X:     2.4507      Y:     0.4120      Z:    -0.5275     Total:     2.5404


*** tstop() called on skystd35.palmetto.clemson.edu at Sat Dec 11 17:33:09 2021
Module time:
	user time   =      34.86 seconds =       0.58 minutes
	system time =       0.66 seconds =       0.01 minutes
	total time  =         36 seconds =       0.60 minutes
Total time:
	user time   =      34.86 seconds =       0.58 minutes
	system time =       0.66 seconds =       0.01 minutes
	total time  =         36 seconds =       0.60 minutes

*** tstart() called on skystd35.palmetto.clemson.edu
*** at Sat Dec 11 17:33:09 2021


  //>>>>>>>>>>>>>>>>>>>>>>>>>>>>>>>>>>>//
  //               DFMP2               //
  //<<<<<<<<<<<<<<<<<<<<<<<<<<<<<<<<<<<//

   => Loading Basis Set <=

    Name: (CC-PVDZ AUX)
    Role: RIFIT
    Keyword: DF_BASIS_MP2
    atoms 1-12         entry C          line   159 file /home/maxbuskirk/.conda/envs/psifour/share/psi4/basis/cc-pvdz-ri.gbs 
    atoms 13-14, 16-26 entry H          line    19 file /home/maxbuskirk/.conda/envs/psifour/share/psi4/basis/cc-pvdz-ri.gbs 
    atoms 15           entry CL         line   649 file /home/maxbuskirk/.conda/envs/psifour/share/psi4/basis/cc-pvdz-ri.gbs 

	 --------------------------------------------------------
	                          DF-MP2                         
	      2nd-Order Density-Fitted Moller-Plesset Theory     
	              RMP2 Wavefunction,   1 Threads             
	                                                         
	        Rob Parrish, Justin Turney, Andy Simmonett,      
	           Ed Hohenstein, and C. David Sherrill          
	 --------------------------------------------------------

   => Auxiliary Basis Set <=

  Basis Set: (CC-PVDZ AUX)
    Blend: CC-PVDZ-RI
    Number of shells: 318
    Number of basis functions: 930
    Number of Cartesian functions: 1077
    Spherical Harmonics?: true
    Max angular momentum: 3

	 --------------------------------------------------------
	                 NBF =   251, NAUX =   930
	 --------------------------------------------------------
	   CLASS    FOCC     OCC    AOCC    AVIR     VIR    FVIR
	   PAIRS       0      51      51     200     200       0
	 --------------------------------------------------------


         ------------------------------------------------------------
                                     CPHF                           
                                  Rob Parrish                       
         ------------------------------------------------------------

  ==> Geometry <==

    Molecular point group: c1
    Full point group: C1

    Geometry (in Angstrom), charge = 0, multiplicity = 1:

       Center              X                  Y                   Z               Mass       
    ------------   -----------------  -----------------  -----------------  -----------------
         C            3.802945809143     1.484800783811     0.465358189183    12.000000000000
         C            2.291655809143     1.765766783811     0.557951189183    12.000000000000
         C            1.685687809143     0.539327783811    -0.107002810817    12.000000000000
         C            2.610715809143    -0.083052216189    -0.893403810817    12.000000000000
         C            3.945475809143     0.630793783811    -0.807370810817    12.000000000000
         C            0.264561809143     0.182757783811     0.050494189183    12.000000000000
         C           -0.146582190857    -1.162258216189     0.191075189183    12.000000000000
         C           -1.502552190857    -1.487860216189     0.346474189183    12.000000000000
         C           -2.474390190857    -0.474497216189     0.375720189183    12.000000000000
         C           -2.077915190857     0.868283783811     0.258681189183    12.000000000000
         C           -0.722483190857     1.193224783811     0.105029189183    12.000000000000
         C            2.411793809143    -1.227382216189    -1.841471810817    12.000000000000
         H           -0.423713190857     2.242053783811     0.012511189183     1.007825032230
         H           -2.827149190857     1.665340783811     0.289370189183     1.007825032230
         CL          -4.155485190857    -0.877638216189     0.573197189183    34.968852682000
         H           -1.799441190857    -2.535271216189     0.458335189183     1.007825032230
         H            0.610007809143    -1.952078216189     0.210132189183     1.007825032230
         H            4.103960809143     0.878930783811     1.336492189183     1.007825032230
         H            4.419008809143     2.397652783811     0.454225189183     1.007825032230
         H            4.801512809143    -0.065526216189    -0.771023810817     1.007825032230
         H            4.086619809143     1.263295783811    -1.706992810817     1.007825032230
         H            1.347344809143    -1.458277216189    -1.994060810817     1.007825032230
         H            2.860471809143    -0.983789216189    -2.820550810817     1.007825032230
         H            2.917255809143    -2.140695216189    -1.479335810817     1.007825032230
         H            1.937653809143     1.910146783811     1.592275189183     1.007825032230
         H            2.023802809143     2.678830783811    -0.009188810817     1.007825032230

  Nuclear repulsion =  812.981678357297255
  Reference energy  = -921.517086879311933

  ==> Basis Set <==

  Basis Set: CC-PVDZ
    Blend: CC-PVDZ
    Number of shells: 119
    Number of basis functions: 251
    Number of Cartesian functions: 264
    Spherical Harmonics?: true
    Max angular momentum: 2

  ==> CGRSolver (by Rob Parrish) <==

   Number of roots    =         1
   Preconditioning    =    JACOBI
   Convergence cutoff =     1E-06
   Maximum iterations =       100

  ==> CPHFRHamiltonian (by Rob Parrish) <== 

  ==> DiskDFJK: Density-Fitted J/K Matrices <==

    J tasked:                  Yes
    K tasked:                  Yes
    wK tasked:                  No
    OpenMP threads:              1
    Integrals threads:           1
    Memory [MiB]:              375
    Algorithm:                Core
    Integral Cache:           NONE
    Schwarz Cutoff:          1E-12
    Fitting Condition:       1E-10

   => Auxiliary Basis Set <=

  Basis Set: (CC-PVDZ AUX)
    Blend: CC-PVDZ-JKFIT
    Number of shells: 441
    Number of basis functions: 1251
    Number of Cartesian functions: 1427
    Spherical Harmonics?: true
    Max angular momentum: 3

  ==> CPHF Iterations <==

  => Iterations <=

             Iter  Converged  Remaining    Residual
  CGR           1          0          1   8.735E-02
  CGR           2          0          1   1.674E-02
  CGR           3          0          1   9.566E-03
  CGR           4          0          1   4.505E-03
  CGR           5          0          1   2.276E-03
  CGR           6          0          1   8.753E-04
  CGR           7          0          1   3.243E-04
  CGR           8          0          1   1.014E-04
  CGR           9          0          1   3.780E-05
  CGR          10          0          1   1.425E-05
  CGR          11          0          1   5.327E-06
  CGR          12          0          1   2.072E-06
  CGR          13          1          0   7.224E-07

    CGRSolver converged.

  ==> DFCorrGrad: Density-Fitted Correlated Gradients <==

    OpenMP threads:              1
    Integrals threads:           1
    Memory [GiB]:            0.366
    Schwarz Cutoff:          0E+00
    Fitting Condition:       1E-10

   => Auxiliary Basis Set <=

  Basis Set: (CC-PVDZ AUX)
    Blend: CC-PVDZ-JKFIT
    Number of shells: 441
    Number of basis functions: 1251
    Number of Cartesian functions: 1427
    Spherical Harmonics?: true
    Max angular momentum: 3

	-----------------------------------------------------------
	 ==================> DF-MP2 Energies <==================== 
	-----------------------------------------------------------
	 Reference Energy          =    -921.5170868793119325 [Eh]
	 Singles Energy            =      -0.0000000000000000 [Eh]
	 Same-Spin Energy          =      -0.4692427216966569 [Eh]
	 Opposite-Spin Energy      =      -1.3153364249600599 [Eh]
	 Correlation Energy        =      -1.7845791466567169 [Eh]
	 Total Energy              =    -923.3016660259686432 [Eh]
	-----------------------------------------------------------
	 ================> DF-SCS-MP2 Energies <================== 
	-----------------------------------------------------------
	 SCS Same-Spin Scale       =       0.3333333333333333 [-]
	 SCS Opposite-Spin Scale   =       1.2000000000000000 [-]
	 SCS Same-Spin Energy      =      -0.1564142405655523 [Eh]
	 SCS Opposite-Spin Energy  =      -1.5784037099520718 [Eh]
	 SCS Correlation Energy    =      -1.7348179505176240 [Eh]
	 SCS Total Energy          =    -923.2519048298295274 [Eh]
	-----------------------------------------------------------


  -Total Gradient:
     Atom            X                  Y                   Z
    ------   -----------------  -----------------  -----------------
       1       -0.000042300162     0.000026164918    -0.000029793490
       2        0.000151576143    -0.000161845919    -0.000094037526
       3        0.000196777097    -0.000035173785    -0.000162244115
       4       -0.000157342922     0.000124215531     0.000176328058
       5        0.000015364399    -0.000015194849    -0.000061670029
       6       -0.002406432611    -0.000526860800     0.000403578928
       7        0.002253637020    -0.003656094470     0.000098493946
       8        0.000302224752     0.004873013097    -0.000359372574
       9       -0.007445875623    -0.001739962455     0.000835125173
      10        0.002508177885    -0.004238641605    -0.000095958182
      11        0.000346908287     0.004249679265    -0.000363407806
      12       -0.000009136456     0.000052079983    -0.000037886296
      13        0.001103761149     0.000120465977    -0.000122080905
      14        0.000454957640     0.001218348250    -0.000085861887
      15        0.000433649221     0.000088788783    -0.000009971732
      16        0.000953436113    -0.000882585928    -0.000095733248
      17        0.001031325006     0.000412193801    -0.000101446987
      18        0.000022687598    -0.000035869285     0.000006469026
      19        0.000080500862     0.000041424448    -0.000000485174
      20        0.000075457726    -0.000009003600     0.000009253251
      21        0.000062928462     0.000067034464    -0.000016771299
      22       -0.000004598550     0.000083679429     0.000139170936
      23        0.000087105730     0.000103558246    -0.000126798530
      24        0.000039857623    -0.000134012608     0.000083304085
      25       -0.000032706276     0.000005575066    -0.000029572142
      26       -0.000021940194    -0.000030975975     0.000041368540


*** tstop() called on skystd35.palmetto.clemson.edu at Sat Dec 11 17:34:37 2021
Module time:
	user time   =      85.27 seconds =       1.42 minutes
	system time =       2.25 seconds =       0.04 minutes
	total time  =         88 seconds =       1.47 minutes
Total time:
	user time   =     120.13 seconds =       2.00 minutes
	system time =       2.91 seconds =       0.05 minutes
	total time  =        124 seconds =       2.07 minutes

			-----------------------------------------
			 OPTKING 2.0: for geometry optimizations 
			  - R.A. King,  Bethel University        
			-----------------------------------------

	Internal coordinates to be generated automatically.
	Detected frag 1 with atoms:  1 2 3 4 5 6 7 8 9 10 11 12 13 14 15 16 17 18 19 20
	 21 22 23 24 25 26
	---Fragment 1 Bond Connectivity---
	 1 : 2 5 18 19
	 2 : 1 3 25 26
	 3 : 2 4 6
	 4 : 3 5 12
	 5 : 1 4 20 21
	 6 : 3 7 11
	 7 : 6 8 17
	 8 : 7 9 16
	 9 : 8 10 15
	 10 : 9 11 14
	 11 : 6 10 13
	 12 : 4 22 23 24
	 13 : 11
	 14 : 10
	 15 : 9
	 16 : 8
	 17 : 7
	 18 : 1
	 19 : 1
	 20 : 5
	 21 : 5
	 22 : 12
	 23 : 12
	 24 : 12
	 25 : 2
	 26 : 2

	---Fragment 1 Geometry and Gradient---
	 C           7.1865260492        2.8058668323        0.8793995278
	 C           4.3306018531        3.3368156228        1.0543749389
	 C           3.1854882923        1.0191818033       -0.2022060071
	 C           4.9335378707       -0.1569459427       -1.6882885219
	 C           7.4558687139        1.1920274930       -1.5257097141
	 C           0.4999493625        0.3453621587        0.0954201885
	 C          -0.2770001956       -2.1963497157        0.3610797769
	 C          -2.8394121299       -2.8116483216        0.6547413271
	 C          -4.6759197882       -0.8966697859        0.7100082574
	 C          -3.9266906226        1.6408185506        0.4888366014
	 C          -1.3652953610        2.2548680475        0.1984764027
	 C           4.5576297704       -2.3194162399       -3.4798773902
	 H          -0.8007018865        4.2368676099        0.0236427211
	 H          -5.3425376865        3.1470379870        0.5468304064
	 CL         -7.8527289291       -1.6584958658        1.0831857034
	 H          -3.4004510296       -4.7909682524        0.8661279812
	 H           1.1527476937       -3.6888932041        0.3970922877
	 H           7.7553619589        1.6609384646        2.5256042064
	 H           8.3507163953        4.5309071053        0.8583612068
	 H           9.0735441972       -0.1238266026       -1.4570238387
	 H           7.7225922182        2.3872830468       -3.2257489106
	 H           2.5461126858       -2.7557445536       -3.7682288100
	 H           5.4055083089       -1.8590921838       -5.3300685554
	 H           5.5128145172       -4.0453276767       -2.7955395300
	 H           3.6616350252        3.6096542808        3.0089640239
	 H           3.8244330412        5.0622565178       -0.0173643359
	            -0.0000423002        0.0000261649       -0.0000297935
	             0.0001515761       -0.0001618459       -0.0000940375
	             0.0001967771       -0.0000351738       -0.0001622441
	            -0.0001573429        0.0001242155        0.0001763281
	             0.0000153644       -0.0000151948       -0.0000616700
	            -0.0024064326       -0.0005268608        0.0004035789
	             0.0022536370       -0.0036560945        0.0000984939
	             0.0003022248        0.0048730131       -0.0003593726
	            -0.0074458756       -0.0017399625        0.0008351252
	             0.0025081779       -0.0042386416       -0.0000959582
	             0.0003469083        0.0042496793       -0.0003634078
	            -0.0000091365        0.0000520800       -0.0000378863
	             0.0011037611        0.0001204660       -0.0001220809
	             0.0004549576        0.0012183483       -0.0000858619
	             0.0004336492        0.0000887888       -0.0000099717
	             0.0009534361       -0.0008825859       -0.0000957332
	             0.0010313250        0.0004121938       -0.0001014470
	             0.0000226876       -0.0000358693        0.0000064690
	             0.0000805009        0.0000414244       -0.0000004852
	             0.0000754577       -0.0000090036        0.0000092533
	             0.0000629285        0.0000670345       -0.0000167713
	            -0.0000045985        0.0000836794        0.0001391709
	             0.0000871057        0.0001035582       -0.0001267985
	             0.0000398576       -0.0001340126        0.0000833041
	            -0.0000327063        0.0000055751       -0.0000295721
	            -0.0000219402       -0.0000309760        0.0000413685

	Previous optimization step data not found.  Starting new optimization.

	---Fragment 1 Intrafragment Coordinates---
	 - Coordinate -           - BOHR/RAD -       - ANG/DEG -
	 R(1,2)           =         2.910125	       1.539972
	 R(1,5)           =         2.908878	       1.539312
	 R(1,18)          =         2.084328	       1.102979
	 R(1,19)          =         2.081237	       1.101343
	 R(2,3)           =         2.874319	       1.521024
	 R(2,25)          =         2.083837	       1.102719
	 R(2,26)          =         2.093318	       1.107736
	 R(3,4)           =         2.578254	       1.364353
	 R(3,6)           =         2.784732	       1.473617
	 R(4,5)           =         2.865016	       1.516101
	 R(4,12)          =         2.833262	       1.499298
	 R(5,20)          =         2.086400	       1.104075
	 R(5,21)          =         2.095211	       1.108738
	 R(6,7)           =         2.671053	       1.413460
	 R(6,11)          =         2.671324	       1.413604
	 R(7,8)           =         2.651563	       1.403147
	 R(7,17)          =         2.067163	       1.093895
	 R(8,9)           =         2.653857	       1.404361
	 R(8,16)          =         2.068129	       1.094407
	 R(9,10)          =         2.655016	       1.404974
	 R(9,15)          =         3.288124	       1.740000
	 R(10,11)         =         2.649927	       1.402281
	 R(10,14)         =         2.068014	       1.094346
	 R(11,13)         =         2.068249	       1.094470
	 R(12,22)         =         2.078396	       1.099840
	 R(12,23)         =         2.086625	       1.104194
	 R(12,24)         =         2.087934	       1.104887
	 B(1,2,3)         =         1.790127	     102.566700
	 B(1,2,25)        =         1.977226	     113.286730
	 B(1,2,26)        =         1.935744	     110.909973
	 B(1,5,4)         =         1.799406	     103.098356
	 B(1,5,20)        =         1.976291	     113.233108
	 B(1,5,21)        =         1.945680	     111.479279
	 B(2,1,5)         =         1.815021	     103.993068
	 B(2,1,18)        =         1.897117	     108.696781
	 B(2,1,19)        =         1.980503	     113.474479
	 B(2,3,4)         =         1.928043	     110.468727
	 B(2,3,6)         =         2.132448	     122.180296
	 B(3,2,25)        =         1.968972	     112.813790
	 B(3,2,26)        =         1.922464	     110.149081
	 B(3,4,5)         =         1.927736	     110.451137
	 B(3,4,12)        =         2.242975	     128.512983
	 B(3,6,7)         =         2.119286	     121.426120
	 B(3,6,11)        =         2.099640	     120.300495
	 B(4,3,6)         =         2.220651	     127.233923
	 B(4,5,20)        =         1.968736	     112.800279
	 B(4,5,21)        =         1.912013	     109.550255
	 B(4,12,22)       =         1.956670	     112.108928
	 B(4,12,23)       =         1.916015	     109.779573
	 B(4,12,24)       =         1.942233	     111.281772
	 B(5,1,18)        =         1.899693	     108.844371
	 B(5,1,19)        =         1.981979	     113.559042
	 B(5,4,12)        =         2.108376	     120.801049
	 B(6,7,8)         =         2.109388	     120.859024
	 B(6,7,17)        =         2.080147	     119.183628
	 B(6,11,10)       =         2.110063	     120.897728
	 B(6,11,13)       =         2.084192	     119.415378
	 B(7,6,11)        =         2.063785	     118.246186
	 B(7,8,9)         =         2.098568	     120.239106
	 B(7,8,16)        =         2.089281	     119.706964
	 B(8,7,17)        =         2.093145	     119.928351
	 B(8,9,10)        =         2.085899	     119.513219
	 B(8,9,15)        =         2.098751	     120.249548
	 B(9,8,16)        =         2.095250	     120.048967
	 B(9,10,11)       =         2.098279	     120.222516
	 B(9,10,14)       =         2.095045	     120.037222
	 B(10,9,15)       =         2.098475	     120.233761
	 B(10,11,13)      =         2.088843	     119.681864
	 B(11,10,14)      =         2.089860	     119.740132
	 B(18,1,19)       =         1.886638	     108.096378
	 B(20,5,21)       =         1.862719	     106.725958
	 B(22,12,23)      =         1.892897	     108.455036
	 B(22,12,24)      =         1.890932	     108.342411
	 B(23,12,24)      =         1.861979	     106.683530
	 B(25,2,26)       =         1.869917	     107.138345
	 D(1,2,3,4)       =        -0.348852	     -19.987768
	 D(1,2,3,6)       =         2.856778	     163.681328
	 D(1,5,4,3)       =         0.300808	      17.235016
	 D(1,5,4,12)      =        -2.930014	    -167.877438
	 D(2,1,5,4)       =        -0.499803	     -28.636594
	 D(2,1,5,20)      =        -2.632586	    -150.836039
	 D(2,1,5,21)      =         1.549857	      88.800282
	 D(2,3,4,5)       =         0.031048	       1.778925
	 D(2,3,4,12)      =        -3.012567	    -172.607364
	 D(2,3,6,7)       =        -2.462500	    -141.090867
	 D(2,3,6,11)      =         0.645400	      36.978697
	 D(3,2,1,5)       =         0.514363	      29.470838
	 D(3,2,1,18)      =        -1.507311	     -86.362554
	 D(3,2,1,19)      =         2.676299	     153.340666
	 D(3,4,5,20)      =         2.438658	     139.724821
	 D(3,4,5,21)      =        -1.772435	    -101.553028
	 D(3,4,12,22)     =         0.167316	       9.586503
	 D(3,4,12,23)     =         2.272366	     130.196980
	 D(3,4,12,24)     =        -1.953574	    -111.931530
	 D(3,6,7,8)       =         3.136447	     179.705195
	 D(3,6,7,17)      =         0.029066	       1.665353
	 D(3,6,11,10)     =        -3.138209	    -179.806114
	 D(3,6,11,13)     =         0.017671	       1.012458
	 D(4,3,2,25)      =        -2.482003	    -142.208323
	 D(4,3,2,26)      =         1.712697	      98.130327
	 D(4,3,6,7)       =         0.754466	      43.227732
	 D(4,3,6,11)      =        -2.420819	    -138.702704
	 D(4,5,1,18)      =         1.520059	      87.092954
	 D(4,5,1,19)      =        -2.660781	    -152.451540
	 D(5,1,2,25)      =         2.641906	     151.370088
	 D(5,1,2,26)      =        -1.537774	     -88.107935
	 D(5,4,3,6)       =         3.104559	     177.878117
	 D(5,4,12,22)     =        -2.867367	    -164.288012
	 D(5,4,12,23)     =        -0.762317	     -43.677535
	 D(5,4,12,24)     =         1.294929	      74.193955
	 D(6,3,2,25)      =         0.723627	      41.460773
	 D(6,3,2,26)      =        -1.364858	     -78.200577
	 D(6,3,4,12)      =         0.060944	       3.491829
	 D(6,7,8,9)       =        -0.009298	      -0.532741
	 D(6,7,8,16)      =        -3.136753	    -179.722706
	 D(6,11,10,9)     =         0.012040	       0.689867
	 D(6,11,10,14)    =        -3.131840	    -179.441216
	 D(7,6,11,10)     =        -0.029252	      -1.676026
	 D(7,6,11,13)     =         3.126627	     179.142545
	 D(7,8,9,10)      =        -0.008597	      -0.492558
	 D(7,8,9,15)      =        -3.138387	    -179.816317
	 D(8,7,6,11)      =         0.027876	       1.597200
	 D(8,9,10,11)     =         0.007241	       0.414863
	 D(8,9,10,14)     =        -3.132057	    -179.453662
	 D(9,8,7,17)      =         3.097830	     177.492594
	 D(9,10,11,13)    =         3.139309	     179.869135
	 D(10,9,8,16)     =         3.118810	     178.694624
	 D(11,6,7,17)     =        -3.079505	    -176.442642
	 D(11,10,9,15)    =         3.137033	     179.738730
	 D(12,4,5,20)     =        -0.792164	     -45.387633
	 D(12,4,5,21)     =         1.279929	      73.334518
	 D(13,11,10,14)   =        -0.004572	      -0.261949
	 D(14,10,9,15)    =        -0.002265	      -0.129795
	 D(15,9,8,16)     =        -0.010980	      -0.629135
	 D(16,8,7,17)     =        -0.029625	      -1.697371
	 D(18,1,2,25)     =         0.620232	      35.536695
	 D(18,1,2,26)     =         2.723738	     156.058672
	 D(18,1,5,20)     =        -0.612724	     -35.106492
	 D(18,1,5,21)     =        -2.713466	    -155.470171
	 D(19,1,2,25)     =        -1.479343	     -84.760085
	 D(19,1,2,26)     =         0.624163	      35.761892
	 D(19,1,5,20)     =         1.489621	      85.349014
	 D(19,1,5,21)     =        -0.611121	     -35.014665
	 R(7,12)          =         6.175900	       3.268146

	Current energy   :      -923.3016660260

	Generating empirical Hessian (Schlegel '84) for each fragment.
	Taking RFO optimization step.
	Going to follow RFO solution 1.
	Using RFO vector 1.
	Norm of target step-size    0.04241
	Projected energy change by RFO approximation:        -0.0003417999

	Back-transformation to cartesian coordinates...
	Could not converge backtransformation.
	Using first guess instead.

	--- Internal Coordinate Step in ANG or DEG, aJ/ANG or AJ/DEG ---
	 ---------------------------------------------------------------------------
	   Coordinate                Previous        Force       Change         New 
	   ----------                --------       ------       ------       ------
	    1 R(1,2)          =      1.539972    -0.000269    -0.000082     1.539889
	    2 R(1,5)          =      1.539312     0.000774     0.000152     1.539464
	    3 R(1,18)         =      1.102979    -0.000255    -0.000044     1.102935
	    4 R(1,19)         =      1.101343    -0.000654    -0.000124     1.101219
	    5 R(2,3)          =      1.521024     0.000171     0.000083     1.521107
	    6 R(2,25)         =      1.102719     0.000136     0.000029     1.102748
	    7 R(2,26)         =      1.107736     0.000341     0.000071     1.107807
	    8 R(3,4)          =      1.364353     0.000342     0.000130     1.364483
	    9 R(3,6)          =      1.473617    -0.004163    -0.000665     1.472952
	   10 R(4,5)          =      1.516101    -0.000948    -0.000220     1.515881
	   11 R(4,12)         =      1.499298     0.001005     0.000241     1.499538
	   12 R(5,20)         =      1.104075    -0.000531    -0.000099     1.103976
	   13 R(5,21)         =      1.108738    -0.000493    -0.000092     1.108646
	   14 R(6,7)          =      1.413460    -0.000545    -0.000058     1.413402
	   15 R(6,11)         =      1.413604    -0.000182    -0.000015     1.413589
	   16 R(7,8)          =      1.403147    -0.011801    -0.001666     1.401480
	   17 R(7,17)         =      1.093895    -0.003410    -0.000605     1.093290
	   18 R(8,9)          =      1.404361    -0.012740    -0.001749     1.402611
	   19 R(8,16)         =      1.094407    -0.004748    -0.000837     1.093570
	   20 R(9,10)         =      1.404974    -0.012550    -0.001721     1.403252
	   21 R(9,15)         =      1.740000     0.003631     0.000741     1.740741
	   22 R(10,11)        =      1.402281    -0.011903    -0.001674     1.400606
	   23 R(10,14)        =      1.094346    -0.004725    -0.000826     1.093520
	   24 R(11,13)        =      1.094470    -0.003518    -0.000628     1.093842
	   25 R(12,22)        =      1.099840     0.000267     0.000054     1.099894
	   26 R(12,23)        =      1.104194    -0.001406    -0.000266     1.103928
	   27 R(12,24)        =      1.104887    -0.001288    -0.000244     1.104642
	   28 B(1,2,3)        =    102.566700    -0.000012    -0.038961   102.527740
	   29 B(1,2,25)       =    113.286730     0.000001    -0.009480   113.277249
	   30 B(1,2,26)       =    110.909973     0.000002    -0.007717   110.902256
	   31 B(1,5,4)        =    103.098356     0.000005     0.026480   103.124836
	   32 B(1,5,20)       =    113.233108     0.000000     0.011853   113.244960
	   33 B(1,5,21)       =    111.479279     0.000001     0.016561   111.495840
	   34 B(2,1,5)        =    103.993068     0.000003     0.015910   104.008979
	   35 B(2,1,18)       =    108.696781     0.000000    -0.007774   108.689007
	   36 B(2,1,19)       =    113.474479    -0.000005    -0.028509   113.445970
	   37 B(2,3,4)        =    110.468727     0.000016     0.047273   110.516000
	   38 B(2,3,6)        =    122.180296     0.000002    -0.023004   122.157293
	   39 B(3,2,25)       =    112.813790     0.000007     0.021239   112.835030
	   40 B(3,2,26)       =    110.149081     0.000002     0.010183   110.159264
	   41 B(3,4,5)        =    110.451137    -0.000013    -0.039277   110.411860
	   42 B(3,4,12)       =    128.512983     0.000002     0.031368   128.544351
	   43 B(3,6,7)        =    121.426120     0.000046     0.157204   121.583324
	   44 B(3,6,11)       =    120.300495     0.000055     0.147505   120.448000
	   45 B(4,3,6)        =    127.233923    -0.000018    -0.025114   127.208808
	   46 B(4,5,20)       =    112.800279    -0.000004    -0.020127   112.780152
	   47 B(4,5,21)       =    109.550255    -0.000004    -0.043208   109.507047
	   48 B(4,12,22)      =    112.108928     0.000016     0.086042   112.194970
	   49 B(4,12,23)      =    109.779573     0.000004     0.008869   109.788442
	   50 B(4,12,24)      =    111.281772    -0.000003    -0.012614   111.269158
	   51 B(5,1,18)       =    108.844371    -0.000001     0.017738   108.862109
	   52 B(5,1,19)       =    113.559042     0.000002     0.001671   113.560713
	   53 B(5,4,12)       =    120.801049     0.000011     0.016058   120.817107
	   54 B(6,7,8)        =    120.859024     0.000114     0.401044   121.260068
	   55 B(6,7,17)       =    119.183628     0.000024     0.182800   119.366428
	   56 B(6,11,10)      =    120.897728     0.000114     0.401243   121.298970
	   57 B(6,11,13)      =    119.415378     0.000024     0.181524   119.596902
	   58 B(7,6,11)       =    118.246186    -0.000101    -0.308588   117.937598
	   59 B(7,8,9)        =    120.239106    -0.000211    -0.701967   119.537139
	   60 B(7,8,16)       =    119.706964     0.000197     0.781852   120.488816
	   61 B(8,7,17)       =    119.928351    -0.000138    -0.583363   119.344988
	   62 B(8,9,10)       =    119.513219     0.000295     0.909194   120.422413
	   63 B(8,9,15)       =    120.249548    -0.000145    -0.448524   119.801023
	   64 B(9,8,16)       =    120.048967     0.000014    -0.080251   119.968715
	   65 B(9,10,11)      =    120.222516    -0.000211    -0.703425   119.519091
	   66 B(9,10,14)      =    120.037222     0.000014    -0.080512   119.956711
	   67 B(10,9,15)      =    120.233761    -0.000149    -0.460293   119.773467
	   68 B(10,11,13)     =    119.681864    -0.000138    -0.583288   119.098575
	   69 B(11,10,14)     =    119.740132     0.000198     0.784045   120.524176
	   70 B(18,1,19)      =    108.096378     0.000001     0.002278   108.098655
	   71 B(20,5,21)      =    106.725958     0.000001     0.006323   106.732281
	   72 B(22,12,23)     =    108.455036    -0.000010    -0.045044   108.409992
	   73 B(22,12,24)     =    108.342411    -0.000004    -0.003237   108.339174
	   74 B(23,12,24)     =    106.683530    -0.000005    -0.041483   106.642046
	   75 B(25,2,26)      =    107.138345    -0.000000     0.022913   107.161258
	   76 D(1,2,3,4)      =    -19.987768    -0.000000    -0.044684   -20.032452
	   77 D(1,2,3,6)      =    163.681328     0.000000    -0.030758   163.650570
	   78 D(1,5,4,3)      =     17.235016    -0.000000    -0.073280    17.161736
	   79 D(1,5,4,12)     =   -167.877438     0.000000     0.017444  -167.859994
	   80 D(2,1,5,4)      =    -28.636594    -0.000001     0.029672   -28.606922
	   81 D(2,1,5,20)     =   -150.836039    -0.000000     0.030386  -150.805653
	   82 D(2,1,5,21)     =     88.800282    -0.000001     0.001720    88.802002
	   83 D(2,3,4,5)      =      1.778925     0.000000     0.076483     1.855408
	   84 D(2,3,4,12)     =   -172.607364    -0.000000    -0.021703  -172.629066
	   85 D(2,3,6,7)      =   -141.090867    -0.000001    -0.367808  -141.458675
	   86 D(2,3,6,11)     =     36.978697    -0.000002    -0.507150    36.471546
	   87 D(3,2,1,5)      =     29.470838    -0.000001    -0.009982    29.460857
	   88 D(3,2,1,18)     =    -86.362554    -0.000001    -0.034750   -86.397304
	   89 D(3,2,1,19)     =    153.340666    -0.000000    -0.013796   153.326870
	   90 D(3,4,5,20)     =    139.724821     0.000000    -0.052723   139.672098
	   91 D(3,4,5,21)     =   -101.553028    -0.000001    -0.086637  -101.639665
	   92 D(3,4,12,22)    =      9.586503     0.000001     0.110374     9.696877
	   93 D(3,4,12,23)    =    130.196980     0.000001     0.116173   130.313153
	   94 D(3,4,12,24)    =   -111.931530    -0.000000     0.062779  -111.868751
	   95 D(3,6,7,8)      =    179.705195    -0.000000    -0.070885   179.634310
	   96 D(3,6,7,17)     =      1.665353     0.000000    -0.075700     1.589653
	   97 D(3,6,11,10)    =   -179.806114    -0.000000     0.041712  -179.764402
	   98 D(3,6,11,13)    =      1.012458     0.000000     0.088173     1.100630
	   99 D(4,3,2,25)     =   -142.208323     0.000000    -0.019620  -142.227943
	  100 D(4,3,2,26)     =     98.130327    -0.000001    -0.069879    98.060448
	  101 D(4,3,6,7)      =     43.227732    -0.000001    -0.354193    42.873539
	  102 D(4,3,6,11)     =   -138.702704    -0.000002    -0.493535  -139.196240
	  103 D(4,5,1,18)     =     87.092954    -0.000000     0.036541    87.129495
	  104 D(4,5,1,19)     =   -152.451540     0.000000     0.053063  -152.398477
	  105 D(5,1,2,25)     =    151.370088    -0.000000    -0.014432   151.355655
	  106 D(5,1,2,26)     =    -88.107935     0.000000     0.002985   -88.104950
	  107 D(5,4,3,6)      =    177.878117     0.000000     0.061991   177.940108
	  108 D(5,4,12,22)    =   -164.288012     0.000000     0.005726  -164.282287
	  109 D(5,4,12,23)    =    -43.677535     0.000000     0.011524   -43.666011
	  110 D(5,4,12,24)    =     74.193955    -0.000001    -0.041869    74.152086
	  111 D(6,3,2,25)     =     41.460773     0.000001    -0.005694    41.455079
	  112 D(6,3,2,26)     =    -78.200577    -0.000001    -0.055954   -78.256530
	  113 D(6,3,4,12)     =      3.491829    -0.000000    -0.036195     3.455634
	  114 D(6,7,8,9)      =     -0.532741    -0.000000     0.025379    -0.507362
	  115 D(6,7,8,16)     =   -179.722706     0.000000     0.055395  -179.667311
	  116 D(6,11,10,9)    =      0.689867     0.000000     0.027156     0.717023
	  117 D(6,11,10,14)   =   -179.441216     0.000001     0.104313  -179.336904
	  118 D(7,6,11,10)    =     -1.676026    -0.000000    -0.084141    -1.760166
	  119 D(7,6,11,13)    =    179.142545     0.000000    -0.037680   179.104866
	  120 D(7,8,9,10)     =     -0.492558    -0.000001    -0.097933    -0.590492
	  121 D(7,8,9,15)     =   -179.816317    -0.000001    -0.132614  -179.948931
	  122 D(8,7,6,11)     =      1.597200    -0.000000     0.056804     1.654004
	  123 D(8,9,10,11)    =      0.414863     0.000001     0.072495     0.487358
	  124 D(8,9,10,14)    =   -179.453662     0.000000    -0.005363  -179.459026
	  125 D(9,8,7,17)     =    177.492594     0.000000     0.045112   177.537706
	  126 D(9,10,11,13)   =    179.869135     0.000000    -0.012923   179.856212
	  127 D(10,9,8,16)    =    178.694624    -0.000001    -0.120734   178.573889
	  128 D(11,6,7,17)    =   -176.442642     0.000000     0.051989  -176.390653
	  129 D(11,10,9,15)   =    179.738730     0.000001     0.107244   179.845974
	  130 D(12,4,5,20)    =    -45.387633     0.000000     0.038002   -45.349632
	  131 D(12,4,5,21)    =     73.334518    -0.000000     0.004087    73.338606
	  132 D(13,11,10,14)  =     -0.261949     0.000001     0.064234    -0.197715
	  133 D(14,10,9,15)   =     -0.129795     0.000000     0.029385    -0.100410
	  134 D(15,9,8,16)    =     -0.629135    -0.000001    -0.155415    -0.784550
	  135 D(16,8,7,17)    =     -1.697371     0.000001     0.075128    -1.622243
	  136 D(18,1,2,25)    =     35.536695    -0.000000    -0.039201    35.497494
	  137 D(18,1,2,26)    =    156.058672    -0.000000    -0.021783   156.036889
	  138 D(18,1,5,20)    =    -35.106492     0.000000     0.037255   -35.069236
	  139 D(18,1,5,21)    =   -155.470171    -0.000001     0.008590  -155.461581
	  140 D(19,1,2,25)    =    -84.760085    -0.000000    -0.018247   -84.778332
	  141 D(19,1,2,26)    =     35.761892     0.000000    -0.000829    35.761064
	  142 D(19,1,5,20)    =     85.349014     0.000000     0.053778    85.402792
	  143 D(19,1,5,21)    =    -35.014665    -0.000000     0.025112   -34.989553
	  144 R(7,12)         =      3.268146     0.000270    -0.001645     3.266501
	 ---------------------------------------------------------------------------
	Successfully symmetrized geometry.

  ==> Convergence Check <==

  Measures of convergence in internal coordinates in au.
  Criteria marked as inactive (o), active & met (*), and active & unmet ( ).
  --------------------------------------------------------------------------------------------- ~
   Step     Total Energy     Delta E     MAX Force     RMS Force      MAX Disp      RMS Disp    ~
  --------------------------------------------------------------------------------------------- ~
    Convergence Criteria    1.00e-06 *    3.00e-04 *             o    1.20e-03 *             o  ~
  --------------------------------------------------------------------------------------------- ~
      1    -923.30166603   -9.23e+02      3.88e-03      7.27e-04 o    1.59e-02      3.53e-03 o  ~
  ---------------------------------------------------------------------------------------------

	Writing optimization data to binary file.
	Structure for next step:
	Cartesian Geometry (in Angstrom)
	    C     3.8022990601   1.4871267671   0.4640469287
	    C     2.2910446446   1.7685222193   0.5545203650
	    C     1.6864499754   0.5402499324  -0.1084876269
	    C     2.6118166784  -0.0837699212  -0.8934140450
	    C     3.9463491040   0.6299350231  -0.8065523251
	    C     0.2659896426   0.1836730201   0.0487816375
	    C    -0.1491492145  -1.1605509634   0.1845294772
	    C    -1.5018989597  -1.4916271496   0.3413851887
	    C    -2.4639985133  -0.4715622469   0.3753075291
	    C    -2.0780666272   0.8731247613   0.2658064111
	    C    -0.7229374971   1.1917937981   0.1116194042
	    C     2.4141051561  -1.2306412576  -1.8390417434
	    H    -0.4300268267   2.2420850171   0.0245428937
	    H    -2.8336703192   1.6627664123   0.3020733815
	   CL    -4.1459954338  -0.8749208894   0.5711831453
	    H    -1.8085399663  -2.5356107908   0.4507679780
	    H     0.6020160411  -1.9547928889   0.1991378226
	    H     4.1023251800   0.8837121515   1.3371681167
	    H     4.4179827512   2.4000637667   0.4512723131
	    H     4.8018974896  -0.0666812555  -0.7674895758
	    H     4.0885907216   1.2599253871  -1.7076488366
	    H     1.3501996900  -1.4626854657  -1.9940500309
	    H     2.8646456117  -0.9900336232  -2.8177037077
	    H     2.9191546271  -2.1426944427  -1.4739132945
	    H     1.9361949832   1.9151687307   1.5882657366
	    H     2.0239859210   2.6803052666  -0.0151872038
			--------------------------
			 OPTKING Finished Execution 
			--------------------------

    Structure for next step:
    Molecular point group: c1
    Full point group: C1

    Geometry (in Angstrom), charge = 0, multiplicity = 1:

    C            3.799872016681     1.486281835122     0.464576626503
    C            2.288617595251     1.767677288367     0.555050063102
    C            1.684022923698     0.539404996631    -0.107957931413
    C            2.609389630322    -0.084614859397    -0.892884352511
    C            3.943922061238     0.629090087728    -0.806022632296
    C            0.263562585360     0.182828083003     0.049311333622
    C           -0.151576273454    -1.161395905802     0.185059173904
    C           -1.504326023892    -1.492472093365     0.341914885964
    C           -2.466425581292    -0.472407186586     0.375837226501
    C           -2.080493693668     0.872279826838     0.266336108080
    C           -0.725364558251     1.190948864973     0.112149100563
    C            2.411678107303    -1.231486200260    -1.838512054706
    H           -0.432453886665     2.241240088076     0.025072589728
    H           -2.836097388676     1.661921480937     0.302603078663
    CL          -4.148422508396    -0.875765830706     0.571712843483
    H           -1.810967031759    -2.536455738611     0.451297675722
    H            0.599588985099    -1.955637834443     0.199667519321
    H            4.099898137771     0.882867217094     1.337697817879
    H            4.415555710196     2.399218838244     0.451802010802
    H            4.799470450192    -0.067526193579    -0.766959882839
    H            4.086163679303     1.259080454184    -1.707119147395
    H            1.347772636935    -1.463530409330    -1.993520342803
    H            2.862218564645    -0.990878564955    -2.817174022837
    H            2.916727580288    -2.143539389020    -1.473383604358
    H            1.933767932438     1.914323800397     1.588795438759
    H            2.021558870663     2.679460339310    -0.014657507922


Scratch directory: /local_scratch/pbs.4129832.pbs02/
gradient() will perform analytic gradient computation.

*** tstart() called on skystd35.palmetto.clemson.edu
*** at Sat Dec 11 17:34:37 2021

   => Loading Basis Set <=

    Name: CC-PVDZ
    Role: ORBITAL
    Keyword: BASIS
    atoms 1-12         entry C          line   138 file /home/maxbuskirk/.conda/envs/psifour/share/psi4/basis/cc-pvdz.gbs 
    atoms 13-14, 16-26 entry H          line    22 file /home/maxbuskirk/.conda/envs/psifour/share/psi4/basis/cc-pvdz.gbs 
    atoms 15           entry CL         line   658 file /home/maxbuskirk/.conda/envs/psifour/share/psi4/basis/cc-pvdz.gbs 


         ---------------------------------------------------------
                                   SCF
               by Justin Turney, Rob Parrish, Andy Simmonett
                          and Daniel G. A. Smith
                              RHF Reference
                        1 Threads,    500 MiB Core
         ---------------------------------------------------------

  ==> Geometry <==

    Molecular point group: c1
    Full point group: C1

    Geometry (in Angstrom), charge = 0, multiplicity = 1:

       Center              X                  Y                   Z               Mass       
    ------------   -----------------  -----------------  -----------------  -----------------
         C            3.799872016681     1.486281835122     0.464576626503    12.000000000000
         C            2.288617595251     1.767677288367     0.555050063102    12.000000000000
         C            1.684022923698     0.539404996631    -0.107957931413    12.000000000000
         C            2.609389630322    -0.084614859397    -0.892884352511    12.000000000000
         C            3.943922061238     0.629090087728    -0.806022632296    12.000000000000
         C            0.263562585360     0.182828083003     0.049311333622    12.000000000000
         C           -0.151576273454    -1.161395905802     0.185059173904    12.000000000000
         C           -1.504326023892    -1.492472093365     0.341914885964    12.000000000000
         C           -2.466425581292    -0.472407186586     0.375837226501    12.000000000000
         C           -2.080493693668     0.872279826838     0.266336108080    12.000000000000
         C           -0.725364558251     1.190948864973     0.112149100563    12.000000000000
         C            2.411678107303    -1.231486200260    -1.838512054706    12.000000000000
         H           -0.432453886665     2.241240088076     0.025072589728     1.007825032230
         H           -2.836097388676     1.661921480937     0.302603078663     1.007825032230
         CL          -4.148422508396    -0.875765830706     0.571712843483    34.968852682000
         H           -1.810967031759    -2.536455738611     0.451297675722     1.007825032230
         H            0.599588985099    -1.955637834443     0.199667519321     1.007825032230
         H            4.099898137771     0.882867217094     1.337697817879     1.007825032230
         H            4.415555710196     2.399218838244     0.451802010802     1.007825032230
         H            4.799470450192    -0.067526193579    -0.766959882839     1.007825032230
         H            4.086163679303     1.259080454184    -1.707119147395     1.007825032230
         H            1.347772636935    -1.463530409330    -1.993520342803     1.007825032230
         H            2.862218564645    -0.990878564955    -2.817174022837     1.007825032230
         H            2.916727580288    -2.143539389020    -1.473383604358     1.007825032230
         H            1.933767932438     1.914323800397     1.588795438759     1.007825032230
         H            2.021558870663     2.679460339310    -0.014657507922     1.007825032230

  Running in c1 symmetry.

  Rotational constants: A =      0.06649  B =      0.01048  C =      0.00946 [cm^-1]
  Rotational constants: A =   1993.22223  B =    314.15645  C =    283.55149 [MHz]
  Nuclear repulsion =  813.399133992443353

  Charge       = 0
  Multiplicity = 1
  Electrons    = 102
  Nalpha       = 51
  Nbeta        = 51

  ==> Algorithm <==

  SCF Algorithm Type is DF.
  DIIS enabled.
  MOM disabled.
  Fractional occupation disabled.
  Guess Type is READ.
  Energy threshold   = 1.00e-10
  Density threshold  = 1.00e-10
  Integral threshold = 1.00e-12

  ==> Primary Basis <==

  Basis Set: CC-PVDZ
    Blend: CC-PVDZ
    Number of shells: 119
    Number of basis functions: 251
    Number of Cartesian functions: 264
    Spherical Harmonics?: true
    Max angular momentum: 2

   => Loading Basis Set <=

    Name: (CC-PVDZ AUX)
    Role: JKFIT
    Keyword: DF_BASIS_SCF
    atoms 1-12         entry C          line   121 file /home/maxbuskirk/.conda/envs/psifour/share/psi4/basis/cc-pvdz-jkfit.gbs 
    atoms 13-14, 16-26 entry H          line    51 file /home/maxbuskirk/.conda/envs/psifour/share/psi4/basis/cc-pvdz-jkfit.gbs 
    atoms 15           entry CL         line   667 file /home/maxbuskirk/.conda/envs/psifour/share/psi4/basis/cc-pvdz-jkfit.gbs 

   => Loading Basis Set <=

    Name: CC-PVDZ
    Role: ORBITAL
    Keyword: BASIS
    atoms 1-12         entry C          line   138 file /home/maxbuskirk/.conda/envs/psifour/share/psi4/basis/cc-pvdz.gbs 
    atoms 13-14, 16-26 entry H          line    22 file /home/maxbuskirk/.conda/envs/psifour/share/psi4/basis/cc-pvdz.gbs 
    atoms 15           entry CL         line   658 file /home/maxbuskirk/.conda/envs/psifour/share/psi4/basis/cc-pvdz.gbs 

  Reading orbitals from file /local_scratch/pbs.4129832.pbs02/pCl.mol.563806.180.npy, no projection.

  ==> Integral Setup <==

  ==> DiskDFJK: Density-Fitted J/K Matrices <==

    J tasked:                  Yes
    K tasked:                  Yes
    wK tasked:                  No
    OpenMP threads:              1
    Integrals threads:           1
    Memory [MiB]:              375
    Algorithm:                Core
    Integral Cache:           NONE
    Schwarz Cutoff:          1E-12
    Fitting Condition:       1E-10

   => Auxiliary Basis Set <=

  Basis Set: (CC-PVDZ AUX)
    Blend: CC-PVDZ-JKFIT
    Number of shells: 441
    Number of basis functions: 1251
    Number of Cartesian functions: 1427
    Spherical Harmonics?: true
    Max angular momentum: 3

  Minimum eigenvalue in the overlap matrix is 3.0500010174E-04.
  Reciprocal condition number of the overlap matrix is 4.7249851033E-05.
    Using symmetric orthogonalization.

  ==> Pre-Iterations <==

  SCF Guess: Orbitals guess was supplied from a previous computation.

   -------------------------------------------------------
    Irrep   Nso     Nmo     Nalpha   Nbeta   Ndocc  Nsocc
   -------------------------------------------------------
     A        251     251      51      51      51       0
   -------------------------------------------------------
    Total     251     251      51      51      51       0
   -------------------------------------------------------

  ==> Iterations <==

                           Total Energy        Delta E     RMS |[F,P]|

   @DF-RHF iter   0:  -921.52115571671379   -9.21521e+02   9.52044e-05 
   @DF-RHF iter   1:  -921.51757923259265    3.57648e-03   1.54156e-05 DIIS
   @DF-RHF iter   2:  -921.51759199844832   -1.27659e-05   7.22812e-06 DIIS
   @DF-RHF iter   3:  -921.51759430240509   -2.30396e-06   2.59774e-06 DIIS
   @DF-RHF iter   4:  -921.51759507088354   -7.68478e-07   1.04341e-06 DIIS
   @DF-RHF iter   5:  -921.51759517883806   -1.07955e-07   5.73224e-07 DIIS
   @DF-RHF iter   6:  -921.51759522329849   -4.44604e-08   2.61846e-07 DIIS
   @DF-RHF iter   7:  -921.51759523389615   -1.05977e-08   1.14676e-07 DIIS
   @DF-RHF iter   8:  -921.51759523602402   -2.12788e-09   4.48536e-08 DIIS
   @DF-RHF iter   9:  -921.51759523630517   -2.81148e-10   1.42949e-08 DIIS
   @DF-RHF iter  10:  -921.51759523632631   -2.11458e-11   4.33985e-09 DIIS
   @DF-RHF iter  11:  -921.51759523632859   -2.27374e-12   2.46542e-09 DIIS
   @DF-RHF iter  12:  -921.51759523633052   -1.93268e-12   6.79423e-10 DIIS
   @DF-RHF iter  13:  -921.51759523632859    1.93268e-12   2.62447e-10 DIIS
   @DF-RHF iter  14:  -921.51759523632825    3.41061e-13   1.09032e-10 DIIS
   @DF-RHF iter  15:  -921.51759523632700    1.25056e-12   3.45898e-11 DIIS
  Energy and wave function converged.


  ==> Post-Iterations <==

    Orbital Energies [Eh]
    ---------------------

    Doubly Occupied:                                                      

       1A   -104.831199     2A    -11.304799     3A    -11.257799  
       4A    -11.256797     5A    -11.256703     6A    -11.253010  
       7A    -11.252791     8A    -11.242757     9A    -11.236265  
      10A    -11.235723    11A    -11.234283    12A    -11.234072  
      13A    -11.230947    14A    -10.558109    15A     -8.025759  
      16A     -8.022331    17A     -8.022226    18A     -1.185921  
      19A     -1.151591    20A     -1.111022    21A     -1.026981  
      22A     -1.019042    23A     -1.010201    24A     -0.942571  
      25A     -0.905265    26A     -0.843040    27A     -0.817912  
      28A     -0.785656    29A     -0.725038    30A     -0.660336  
      31A     -0.646050    32A     -0.644761    33A     -0.641535  
      34A     -0.619100    35A     -0.595664    36A     -0.575994  
      37A     -0.570328    38A     -0.547351    39A     -0.541554  
      40A     -0.535773    41A     -0.518982    42A     -0.503099  
      43A     -0.486719    44A     -0.483956    45A     -0.481529  
      46A     -0.468127    47A     -0.457862    48A     -0.449551  
      49A     -0.362770    50A     -0.346276    51A     -0.294603  

    Virtual:                                                              

      52A      0.103309    53A      0.120687    54A      0.170787  
      55A      0.184416    56A      0.190089    57A      0.195916  
      58A      0.211895    59A      0.225931    60A      0.228591  
      61A      0.247865    62A      0.253389    63A      0.260877  
      64A      0.266537    65A      0.281609    66A      0.284192  
      67A      0.295938    68A      0.311758    69A      0.327676  
      70A      0.357104    71A      0.384231    72A      0.389182  
      73A      0.398939    74A      0.424206    75A      0.428871  
      76A      0.442529    77A      0.475262    78A      0.488066  
      79A      0.510360    80A      0.567560    81A      0.589289  
      82A      0.598169    83A      0.615904    84A      0.625284  
      85A      0.636431    86A      0.651335    87A      0.664809  
      88A      0.670499    89A      0.679252    90A      0.688620  
      91A      0.703245    92A      0.710757    93A      0.715112  
      94A      0.719675    95A      0.726648    96A      0.736166  
      97A      0.740333    98A      0.752248    99A      0.762228  
     100A      0.780899   101A      0.783161   102A      0.798334  
     103A      0.823387   104A      0.829067   105A      0.833756  
     106A      0.848971   107A      0.852481   108A      0.855625  
     109A      0.868473   110A      0.876042   111A      0.881586  
     112A      0.883964   113A      0.891457   114A      0.897503  
     115A      0.901362   116A      0.911707   117A      0.915501  
     118A      0.921422   119A      0.923624   120A      0.928338  
     121A      0.939870   122A      0.946253   123A      0.950560  
     124A      0.972417   125A      0.980255   126A      0.984564  
     127A      0.993992   128A      1.006579   129A      1.019053  
     130A      1.033141   131A      1.064857   132A      1.076669  
     133A      1.113170   134A      1.131608   135A      1.139773  
     136A      1.151406   137A      1.165115   138A      1.197282  
     139A      1.198945   140A      1.228216   141A      1.231641  
     142A      1.261122   143A      1.282821   144A      1.283812  
     145A      1.295352   146A      1.317640   147A      1.330190  
     148A      1.346033   149A      1.372815   150A      1.378215  
     151A      1.420642   152A      1.458434   153A      1.471688  
     154A      1.478877   155A      1.483085   156A      1.493748  
     157A      1.508548   158A      1.538457   159A      1.557083  
     160A      1.574699   161A      1.611775   162A      1.625970  
     163A      1.636369   164A      1.647087   165A      1.687157  
     166A      1.699855   167A      1.723216   168A      1.747366  
     169A      1.756910   170A      1.770338   171A      1.800161  
     172A      1.805036   173A      1.809471   174A      1.828260  
     175A      1.839322   176A      1.846487   177A      1.863494  
     178A      1.874924   179A      1.881914   180A      1.895667  
     181A      1.902291   182A      1.915358   183A      1.917810  
     184A      1.926428   185A      1.929720   186A      1.942644  
     187A      1.963918   188A      1.966727   189A      1.974452  
     190A      2.004143   191A      2.012497   192A      2.021979  
     193A      2.026822   194A      2.028598   195A      2.046083  
     196A      2.055314   197A      2.064319   198A      2.071287  
     199A      2.085763   200A      2.096915   201A      2.108578  
     202A      2.113255   203A      2.128055   204A      2.138215  
     205A      2.158433   206A      2.179083   207A      2.187264  
     208A      2.210571   209A      2.232488   210A      2.250778  
     211A      2.264349   212A      2.271338   213A      2.289415  
     214A      2.307765   215A      2.337258   216A      2.367654  
     217A      2.392673   218A      2.400974   219A      2.408806  
     220A      2.423136   221A      2.432838   222A      2.453853  
     223A      2.464531   224A      2.494718   225A      2.520469  
     226A      2.530770   227A      2.545474   228A      2.616307  
     229A      2.656085   230A      2.657575   231A      2.671866  
     232A      2.719202   233A      2.722960   234A      2.752359  
     235A      2.762721   236A      2.768821   237A      2.798533  
     238A      2.821113   239A      2.824825   240A      2.876126  
     241A      2.918620   242A      2.936656   243A      2.949446  
     244A      2.989585   245A      3.004294   246A      3.022200  
     247A      3.055474   248A      3.114713   249A      3.186343  
     250A      3.258605   251A      3.767889  

    Final Occupation by Irrep:
              A 
    DOCC [    51 ]

  @DF-RHF Final Energy:  -921.51759523632700

   => Energetics <=

    Nuclear Repulsion Energy =            813.3991339924433532
    One-Electron Energy =               -2875.0100037593588240
    Two-Electron Energy =                1140.0932745305885874
    Total Energy =                       -921.5175952363269971

Computation Completed


Properties will be evaluated at   0.000000,   0.000000,   0.000000 [a0]

Properties computed using the SCF density matrix

  Nuclear Dipole Moment: [e a0]
     X:    26.2999      Y:     4.4396      Z:    -4.6631

  Electronic Dipole Moment: [e a0]
     X:   -25.3303      Y:    -4.2774      Z:     4.4553

  Dipole Moment: [e a0]
     X:     0.9696      Y:     0.1622      Z:    -0.2078     Total:     1.0048

  Dipole Moment: [D]
     X:     2.4645      Y:     0.4124      Z:    -0.5281     Total:     2.5539


*** tstop() called on skystd35.palmetto.clemson.edu at Sat Dec 11 17:35:01 2021
Module time:
	user time   =      23.60 seconds =       0.39 minutes
	system time =       0.42 seconds =       0.01 minutes
	total time  =         24 seconds =       0.40 minutes
Total time:
	user time   =     143.81 seconds =       2.40 minutes
	system time =       3.36 seconds =       0.06 minutes
	total time  =        148 seconds =       2.47 minutes

*** tstart() called on skystd35.palmetto.clemson.edu
*** at Sat Dec 11 17:35:01 2021


  //>>>>>>>>>>>>>>>>>>>>>>>>>>>>>>>>>>>//
  //               DFMP2               //
  //<<<<<<<<<<<<<<<<<<<<<<<<<<<<<<<<<<<//

   => Loading Basis Set <=

    Name: (CC-PVDZ AUX)
    Role: RIFIT
    Keyword: DF_BASIS_MP2
    atoms 1-12         entry C          line   159 file /home/maxbuskirk/.conda/envs/psifour/share/psi4/basis/cc-pvdz-ri.gbs 
    atoms 13-14, 16-26 entry H          line    19 file /home/maxbuskirk/.conda/envs/psifour/share/psi4/basis/cc-pvdz-ri.gbs 
    atoms 15           entry CL         line   649 file /home/maxbuskirk/.conda/envs/psifour/share/psi4/basis/cc-pvdz-ri.gbs 

	 --------------------------------------------------------
	                          DF-MP2                         
	      2nd-Order Density-Fitted Moller-Plesset Theory     
	              RMP2 Wavefunction,   1 Threads             
	                                                         
	        Rob Parrish, Justin Turney, Andy Simmonett,      
	           Ed Hohenstein, and C. David Sherrill          
	 --------------------------------------------------------

   => Auxiliary Basis Set <=

  Basis Set: (CC-PVDZ AUX)
    Blend: CC-PVDZ-RI
    Number of shells: 318
    Number of basis functions: 930
    Number of Cartesian functions: 1077
    Spherical Harmonics?: true
    Max angular momentum: 3

	 --------------------------------------------------------
	                 NBF =   251, NAUX =   930
	 --------------------------------------------------------
	   CLASS    FOCC     OCC    AOCC    AVIR     VIR    FVIR
	   PAIRS       0      51      51     200     200       0
	 --------------------------------------------------------


         ------------------------------------------------------------
                                     CPHF                           
                                  Rob Parrish                       
         ------------------------------------------------------------

  ==> Geometry <==

    Molecular point group: c1
    Full point group: C1

    Geometry (in Angstrom), charge = 0, multiplicity = 1:

       Center              X                  Y                   Z               Mass       
    ------------   -----------------  -----------------  -----------------  -----------------
         C            3.799872016681     1.486281835122     0.464576626503    12.000000000000
         C            2.288617595251     1.767677288367     0.555050063102    12.000000000000
         C            1.684022923698     0.539404996631    -0.107957931413    12.000000000000
         C            2.609389630322    -0.084614859397    -0.892884352511    12.000000000000
         C            3.943922061238     0.629090087728    -0.806022632296    12.000000000000
         C            0.263562585360     0.182828083003     0.049311333622    12.000000000000
         C           -0.151576273454    -1.161395905802     0.185059173904    12.000000000000
         C           -1.504326023892    -1.492472093365     0.341914885964    12.000000000000
         C           -2.466425581292    -0.472407186586     0.375837226501    12.000000000000
         C           -2.080493693668     0.872279826838     0.266336108080    12.000000000000
         C           -0.725364558251     1.190948864973     0.112149100563    12.000000000000
         C            2.411678107303    -1.231486200260    -1.838512054706    12.000000000000
         H           -0.432453886665     2.241240088076     0.025072589728     1.007825032230
         H           -2.836097388676     1.661921480937     0.302603078663     1.007825032230
         CL          -4.148422508396    -0.875765830706     0.571712843483    34.968852682000
         H           -1.810967031759    -2.536455738611     0.451297675722     1.007825032230
         H            0.599588985099    -1.955637834443     0.199667519321     1.007825032230
         H            4.099898137771     0.882867217094     1.337697817879     1.007825032230
         H            4.415555710196     2.399218838244     0.451802010802     1.007825032230
         H            4.799470450192    -0.067526193579    -0.766959882839     1.007825032230
         H            4.086163679303     1.259080454184    -1.707119147395     1.007825032230
         H            1.347772636935    -1.463530409330    -1.993520342803     1.007825032230
         H            2.862218564645    -0.990878564955    -2.817174022837     1.007825032230
         H            2.916727580288    -2.143539389020    -1.473383604358     1.007825032230
         H            1.933767932438     1.914323800397     1.588795438759     1.007825032230
         H            2.021558870663     2.679460339310    -0.014657507922     1.007825032230

  Nuclear repulsion =  813.399133992443126
  Reference energy  = -921.517595236326997

  ==> Basis Set <==

  Basis Set: CC-PVDZ
    Blend: CC-PVDZ
    Number of shells: 119
    Number of basis functions: 251
    Number of Cartesian functions: 264
    Spherical Harmonics?: true
    Max angular momentum: 2

  ==> CGRSolver (by Rob Parrish) <==

   Number of roots    =         1
   Preconditioning    =    JACOBI
   Convergence cutoff =     1E-06
   Maximum iterations =       100

  ==> CPHFRHamiltonian (by Rob Parrish) <== 

  ==> DiskDFJK: Density-Fitted J/K Matrices <==

    J tasked:                  Yes
    K tasked:                  Yes
    wK tasked:                  No
    OpenMP threads:              1
    Integrals threads:           1
    Memory [MiB]:              375
    Algorithm:                Core
    Integral Cache:           NONE
    Schwarz Cutoff:          1E-12
    Fitting Condition:       1E-10

   => Auxiliary Basis Set <=

  Basis Set: (CC-PVDZ AUX)
    Blend: CC-PVDZ-JKFIT
    Number of shells: 441
    Number of basis functions: 1251
    Number of Cartesian functions: 1427
    Spherical Harmonics?: true
    Max angular momentum: 3

  ==> CPHF Iterations <==

  => Iterations <=

             Iter  Converged  Remaining    Residual
  CGR           1          0          1   8.712E-02
  CGR           2          0          1   1.618E-02
  CGR           3          0          1   8.737E-03
  CGR           4          0          1   3.945E-03
  CGR           5          0          1   2.081E-03
  CGR           6          0          1   8.419E-04
  CGR           7          0          1   3.203E-04
  CGR           8          0          1   1.013E-04
  CGR           9          0          1   3.853E-05
  CGR          10          0          1   1.461E-05
[...]
	   48 B(4,12,22)      =    112.213187     0.000000     0.000277   112.213463
	   49 B(4,12,23)      =    109.777299     0.000000    -0.000307   109.776992
	   50 B(4,12,24)      =    111.269897     0.000000     0.004437   111.274333
	   51 B(5,1,18)       =    108.866028    -0.000000    -0.000381   108.865647
	   52 B(5,1,19)       =    113.553400    -0.000000     0.000529   113.553928
	   53 B(5,4,12)       =    120.787224    -0.000001    -0.009466   120.777758
	   54 B(6,7,8)        =    121.351977    -0.000002    -0.011632   121.340345
	   55 B(6,7,17)       =    119.386778     0.000000    -0.000529   119.386250
	   56 B(6,11,10)      =    121.398300    -0.000001    -0.008889   121.389412
	   57 B(6,11,13)      =    119.588250    -0.000001    -0.007672   119.580578
	   58 B(7,6,11)       =    117.896874     0.000001     0.012848   117.909722
	   59 B(7,8,9)        =    119.348214     0.000000    -0.000029   119.348186
	   60 B(7,8,16)       =    120.765773    -0.000001    -0.004503   120.761270
	   61 B(8,7,17)       =    119.232528     0.000002     0.011535   119.244063
	   62 B(8,9,10)       =    120.655590     0.000001     0.010861   120.666451
	   63 B(8,9,15)       =    119.685929    -0.000001    -0.006535   119.679394
	   64 B(9,8,16)       =    119.879941     0.000000     0.004425   119.884366
	   65 B(9,10,11)      =    119.323924    -0.000000    -0.003147   119.320777
	   66 B(9,10,14)      =    119.870486     0.000001     0.006195   119.876681
	   67 B(10,9,15)      =    119.655337    -0.000001    -0.004508   119.650830
	   68 B(10,11,13)     =    119.007961     0.000002     0.016742   119.024703
	   69 B(11,10,14)     =    120.805532    -0.000001    -0.003055   120.802477
	   70 B(18,1,19)      =    108.100723    -0.000000     0.000341   108.101065
	   71 B(20,5,21)      =    106.730965    -0.000000    -0.000713   106.730252
	   72 B(22,12,23)     =    108.401300     0.000000     0.001723   108.403022
	   73 B(22,12,24)     =    108.337908    -0.000001    -0.007348   108.330560
	   74 B(23,12,24)     =    106.643198     0.000000     0.001160   106.644357
	   75 B(25,2,26)      =    107.173519     0.000000     0.000660   107.174180
	   76 D(1,2,3,4)      =    -20.053070     0.000000     0.006515   -20.046554
	   77 D(1,2,3,6)      =    163.633681     0.000000     0.023244   163.656925
	   78 D(1,5,4,3)      =     17.140029     0.000000     0.017473    17.157502
	   79 D(1,5,4,12)     =   -167.900833    -0.000000    -0.010115  -167.910948
	   80 D(2,1,5,4)      =    -28.597126    -0.000000    -0.011885   -28.609012
	   81 D(2,1,5,20)     =   -150.792448     0.000000    -0.005451  -150.797899
	   82 D(2,1,5,21)     =     88.815914     0.000000    -0.007171    88.808743
	   83 D(2,3,4,5)      =      1.884080    -0.000000    -0.015268     1.868812
	   84 D(2,3,4,12)     =   -172.575200     0.000000     0.015965  -172.559235
	   85 D(2,3,6,7)      =   -141.898786    -0.000000    -0.141747  -142.040533
	   86 D(2,3,6,11)     =     36.017264    -0.000000    -0.138684    35.878580
	   87 D(3,2,1,5)      =     29.467447     0.000000     0.005241    29.472689
	   88 D(3,2,1,18)     =    -86.395710     0.000000     0.006035   -86.389675
	   89 D(3,2,1,19)     =    153.321853     0.000000     0.003888   153.325741
	   90 D(3,4,5,20)     =    139.649956     0.000000     0.016690   139.666646
	   91 D(3,4,5,21)     =   -101.668142     0.000000     0.015302  -101.652841
	   92 D(3,4,12,22)    =     10.069574     0.000000     0.162976    10.232551
	   93 D(3,4,12,23)    =    130.679206     0.000000     0.165128   130.844334
	   94 D(3,4,12,24)    =   -111.507842     0.000000     0.169083  -111.338759
	   95 D(3,6,7,8)      =    179.651373    -0.000000     0.002523   179.653896
	   96 D(3,6,7,17)     =      1.615802     0.000000     0.023578     1.639380
	   97 D(3,6,11,10)    =   -179.769524     0.000000     0.001870  -179.767654
	   98 D(3,6,11,13)    =      1.091307    -0.000000    -0.012584     1.078723
	   99 D(4,3,2,25)     =   -142.238944    -0.000000     0.004550  -142.234393
	  100 D(4,3,2,26)     =     98.045442     0.000000     0.004029    98.049470
	  101 D(4,3,6,7)      =     42.439329    -0.000000    -0.121576    42.317753
	  102 D(4,3,6,11)     =   -139.644621    -0.000000    -0.118514  -139.763135
	  103 D(4,5,1,18)     =     87.145402     0.000000    -0.010687    87.134715
	  104 D(4,5,1,19)     =   -152.381945    -0.000000    -0.010177  -152.392122
	  105 D(5,1,2,25)     =    151.357495     0.000000     0.008237   151.365733
	  106 D(5,1,2,26)     =    -88.087106     0.000000     0.006292   -88.080814
	  107 D(5,4,3,6)      =    177.962617    -0.000000    -0.033312   177.929305
	  108 D(5,4,12,22)    =   -163.883816     0.000000     0.196381  -163.687435
	  109 D(5,4,12,23)    =    -43.274185     0.000000     0.198532   -43.075652
	  110 D(5,4,12,24)    =     74.538768     0.000000     0.202487    74.741255
	  111 D(6,3,2,25)     =     41.447807     0.000000     0.021279    41.469086
	  112 D(6,3,2,26)     =    -78.267808     0.000000     0.020758   -78.247051
	  113 D(6,3,4,12)     =      3.503337    -0.000000    -0.002079     3.501258
	  114 D(6,7,8,9)      =     -0.546210    -0.000000     0.000414    -0.545796
	  115 D(6,7,8,16)     =   -179.648682     0.000000     0.008190  -179.640492
	  116 D(6,11,10,9)    =      0.727984    -0.000000    -0.009635     0.718348
	  117 D(6,11,10,14)   =   -179.360039    -0.000000    -0.014131  -179.374169
	  118 D(7,6,11,10)    =     -1.776944     0.000000     0.004580    -1.772364
	  119 D(7,6,11,13)    =    179.083887    -0.000000    -0.009874   179.074013
	  120 D(7,8,9,10)     =     -0.560829    -0.000000    -0.005282    -0.566111
	  121 D(7,8,9,15)     =   -179.913660     0.000000     0.013160  -179.900500
	  122 D(8,7,6,11)     =      1.684497    -0.000000     0.000042     1.684539
	  123 D(8,9,10,11)    =      0.471606     0.000000     0.009792     0.481398
	  124 D(8,9,10,14)    =   -179.441209     0.000000     0.014254  -179.426955
	  125 D(9,8,7,17)     =    177.492329    -0.000000    -0.020843   177.471486
	  126 D(9,10,11,13)   =    179.872031     0.000000     0.004536   179.876568
	  127 D(10,9,8,16)    =    178.549724    -0.000000    -0.013070   178.536655
	  128 D(11,6,7,17)    =   -176.351074     0.000000     0.021097  -176.329977
	  129 D(11,10,9,15)   =    179.824634    -0.000000    -0.008658   179.815976
	  130 D(12,4,5,20)    =    -45.390907    -0.000000    -0.010898   -45.401804
	  131 D(12,4,5,21)    =     73.290995     0.000000    -0.012287    73.278709
	  132 D(13,11,10,14)  =     -0.215991     0.000000     0.000041    -0.215950
	  133 D(14,10,9,15)   =     -0.088181    -0.000000    -0.004196    -0.092377
	  134 D(15,9,8,16)    =     -0.803107     0.000000     0.005373    -0.797735
	  135 D(16,8,7,17)    =     -1.610143    -0.000000    -0.013067    -1.623210
	  136 D(18,1,2,25)    =     35.494338     0.000000     0.009031    35.503370
	  137 D(18,1,2,26)    =    156.049737     0.000000     0.007086   156.056823
	  138 D(18,1,5,20)    =    -35.049920     0.000000    -0.004253   -35.054172
	  139 D(18,1,5,21)    =   -155.441557     0.000000    -0.005973  -155.447530
	  140 D(19,1,2,25)    =    -84.788099     0.000000     0.006884   -84.781215
	  141 D(19,1,2,26)    =     35.767299     0.000000     0.004939    35.772238
	  142 D(19,1,5,20)    =     85.422733     0.000000    -0.003743    85.418990
	  143 D(19,1,5,21)    =    -34.968905     0.000000    -0.005463   -34.974368
	  144 R(7,12)         =      3.263976    -0.000080    -0.001095     3.262881
	 ---------------------------------------------------------------------------
	Successfully symmetrized geometry.

  ==> Convergence Check <==

  Measures of convergence in internal coordinates in au.
  Criteria marked as inactive (o), active & met (*), and active & unmet ( ).
  ---------------------------------------------------------------------------------------------
   Step     Total Energy     Delta E     MAX Force     RMS Force      MAX Disp      RMS Disp   
  ---------------------------------------------------------------------------------------------
    Convergence Criteria    1.00e-06 *    3.00e-04 *             o    1.20e-03 *             o
  ---------------------------------------------------------------------------------------------
      4    -923.30187311   -7.28e-07 *    3.19e-05 *    8.61e-06 o    3.53e-03      7.89e-04 o  ~
  ---------------------------------------------------------------------------------------------


  **** Optimization is complete! (in 4 steps) ****

  ==> Optimization Summary <==

  Measures of convergence in internal coordinates in au.
  --------------------------------------------------------------------------------------------------------------- ~
   Step         Total Energy             Delta E       MAX Force       RMS Force        MAX Disp        RMS Disp  ~
  --------------------------------------------------------------------------------------------------------------- ~
      1    -923.301666025969   -923.301666025969      0.00387581      0.00072710      0.01586842      0.00353407  ~
      2    -923.301857478328     -0.000191452359      0.00151055      0.00019134      0.00608518      0.00164862  ~
      3    -923.301872378388     -0.000014900060      0.00030953      0.00003318      0.00320085      0.00075030  ~
      4    -923.301873105911     -0.000000727523      0.00003195      0.00000861      0.00353406      0.00078911  ~
  --------------------------------------------------------------------------------------------------------------- ~

	Writing optimization data to binary file.
	Final energy is   -923.3018731059108
	Final (previous) structure:
	Cartesian Geometry (in Angstrom)
	    C     3.7997730343   1.4882372357   0.4558423164
	    C     2.2883598403   1.7685139668   0.5485441525
	    C     1.6836199732   0.5392664209  -0.1122917667
	    C     2.6081192339  -0.0844960756  -0.8985761921
	    C     3.9423357840   0.6302223071  -0.8142099265
	    C     0.2643202813   0.1821657589   0.0482204328
	    C    -0.1519598810  -1.1622817886   0.1769327151
	    C    -1.5044200448  -1.4949827855   0.3367207727
	    C    -2.4633814775  -0.4722531078   0.3811664094
	    C    -2.0793320656   0.8736180920   0.2792344374
	    C    -0.7236282723   1.1902886074   0.1218162796
	    C     2.4102895661  -1.2314102802  -1.8438685368
	    H    -0.4301312197   2.2414165628   0.0407353656
	    H    -2.8362872410   1.6605620017   0.3245892497
	   CL    -4.1485172121  -0.8761401315   0.5819757865
	    H    -1.8151090758  -2.5375873874   0.4410935542
	    H     0.5982924264  -1.9580820354   0.1839723871
	    H     4.1018064751   0.8858481040   1.3289534264
	    H     4.4146973086   2.4016578781   0.4411362477
	    H     4.7983544591  -0.0658686683  -0.7759067832
	    H     4.0828386320   1.2595553718  -1.7160447157
	    H     1.3463749278  -1.4603453716  -2.0029652223
	    H     2.8653322368  -0.9928884925  -2.8209847457
	    H     2.9111251799  -2.1447754396  -1.4761287938
	    H     1.9352479189   1.9157067687   1.5827661657
	    H     2.0194553931   2.6793588891  -0.0216336460
	Saving final (previous) structure.
	Cleaning optimization helper files.
			--------------------------
			 OPTKING Finished Execution 
			--------------------------

    Final optimized geometry and variables:
    Molecular point group: c1
    Full point group: C1

    Geometry (in Angstrom), charge = 0, multiplicity = 1:

    C            3.799773049265     1.488237241555     0.455842318168
    C            2.288359849335     1.768513973740     0.548544154680
    C            1.683619979779     0.539266423015    -0.112291767123
    C            2.608119244194    -0.084496075883    -0.898576195676
    C            3.942335799450     0.630222309535    -0.814209929651
    C            0.264320282338     0.182165759665     0.048220433011
    C           -0.151959881620    -1.162281793150     0.176932715799
    C           -1.504420050727    -1.494982791379     0.336720774067
    C           -2.463381487140    -0.472253109660     0.381166410923
    C           -2.079332073753     0.873618095396     0.279234438517
    C           -0.723628275127     1.190288612047     0.121816280076
    C            2.410289575589    -1.231410285090    -1.843868544012
    H           -0.430131221387     2.241416571612     0.040735365714
    H           -2.836287252188     1.660562008267     0.324589250972
    CL          -4.148517228393    -0.876140134940     0.581975788819
    H           -1.815109082963    -2.537587397331     0.441093555900
    H            0.598292428784    -1.958082043047     0.183972387835
    H            4.101806491253     0.885848107492     1.328953431594
    H            4.414697325950     2.401657887574     0.441136249432
    H            4.798354477959    -0.065868668517    -0.775906786213
    H            4.082838648095     1.259555376731    -1.716044722410
    H            1.346374933042    -1.460345377308    -2.002965230124
    H            2.865332248093    -0.992888496357    -2.820984756829
    H            2.911125191374    -2.144775447989    -1.476128799581
    H            1.935247926547     1.915706776182     1.582766171959
    H            2.019455401021     2.679358899612    -0.021633646088

	Removing binary optimization data file.
	Cleaning optimization helper files.


Properties will be evaluated at   0.000000,   0.000000,   0.000000 [a0]
OEProp: No title given, name of density matrix used for the following properties is 'DF-MP2 relaxed density'
  Mulliken Charges: (a.u.)
   Center  Symbol    Alpha    Beta     Spin     Total
       1     C     3.02694  3.02694  0.00000 -0.05388
       2     C     3.00286  3.00286  0.00000 -0.00573
       3     C     3.02989  3.02989  0.00000 -0.05977
       4     C     3.10625  3.10625  0.00000 -0.21251
       5     C     3.00340  3.00340  0.00000 -0.00680
       6     C     3.04282  3.04282  0.00000 -0.08565
       7     C     3.00079  3.00079  0.00000 -0.00158
       8     C     2.96174  2.96174  0.00000  0.07651
       9     C     3.08337  3.08337  0.00000 -0.16674
      10     C     2.96119  2.96119  0.00000  0.07762
      11     C     3.00094  3.00094  0.00000 -0.00187
      12     C     3.00320  3.00320  0.00000 -0.00641
      13     H     0.49188  0.49188  0.00000  0.01625
      14     H     0.48579  0.48579  0.00000  0.02841
      15    CL     8.53366  8.53366  0.00000 -0.06732
      16     H     0.48553  0.48553  0.00000  0.02894
      17     H     0.49041  0.49041  0.00000  0.01917
      18     H     0.47810  0.47810  0.00000  0.04380
      19     H     0.48396  0.48396  0.00000  0.03208
      20     H     0.48087  0.48087  0.00000  0.03825
      21     H     0.47585  0.47585  0.00000  0.04830
      22     H     0.47226  0.47226  0.00000  0.05548
      23     H     0.47438  0.47438  0.00000  0.05124
      24     H     0.47150  0.47150  0.00000  0.05700
      25     H     0.47798  0.47798  0.00000  0.04404
      26     H     0.47442  0.47442  0.00000  0.05116

   Total alpha = 51.00000, Total beta = 51.00000, Total charge = -0.00000

    Molecular point group: c1
    Full point group: C1

    Geometry (in Angstrom), charge = 0, multiplicity = 1:

       Center              X                  Y                   Z               Mass       
    ------------   -----------------  -----------------  -----------------  -----------------
         C            3.799773049265     1.488237241555     0.455842318168    12.000000000000
         C            2.288359849335     1.768513973740     0.548544154680    12.000000000000
         C            1.683619979779     0.539266423015    -0.112291767123    12.000000000000
         C            2.608119244194    -0.084496075883    -0.898576195676    12.000000000000
         C            3.942335799450     0.630222309535    -0.814209929651    12.000000000000
         C            0.264320282338     0.182165759665     0.048220433011    12.000000000000
         C           -0.151959881620    -1.162281793150     0.176932715799    12.000000000000
         C           -1.504420050727    -1.494982791379     0.336720774067    12.000000000000
         C           -2.463381487140    -0.472253109660     0.381166410923    12.000000000000
         C           -2.079332073753     0.873618095396     0.279234438517    12.000000000000
         C           -0.723628275127     1.190288612047     0.121816280076    12.000000000000
         C            2.410289575589    -1.231410285090    -1.843868544012    12.000000000000
         H           -0.430131221387     2.241416571612     0.040735365714     1.007825032230
         H           -2.836287252188     1.660562008267     0.324589250972     1.007825032230
         CL          -4.148517228393    -0.876140134940     0.581975788819    34.968852682000
         H           -1.815109082963    -2.537587397331     0.441093555900     1.007825032230
         H            0.598292428784    -1.958082043047     0.183972387835     1.007825032230
         H            4.101806491253     0.885848107492     1.328953431594     1.007825032230
         H            4.414697325950     2.401657887574     0.441136249432     1.007825032230
         H            4.798354477959    -0.065868668517    -0.775906786213     1.007825032230
         H            4.082838648095     1.259555376731    -1.716044722410     1.007825032230
         H            1.346374933042    -1.460345377308    -2.002965230124     1.007825032230
         H            2.865332248093    -0.992888496357    -2.820984756829     1.007825032230
         H            2.911125191374    -2.144775447989    -1.476128799581     1.007825032230
         H            1.935247926547     1.915706776182     1.582766171959     1.007825032230
         H            2.019455401021     2.679358899612    -0.021633646088     1.007825032230



  Variable Map:
  ----------------------------------------------------------------------------
  "CURRENT CORRELATION ENERGY"           =>      -1.784299827577
  "CURRENT DIPOLE X"                     =>       2.482740698267
  "CURRENT DIPOLE Y"                     =>       0.415123503567
  "CURRENT DIPOLE Z"                     =>      -0.536263822989
  "CURRENT ENERGY"                       =>    -923.301873105911
  "CURRENT REFERENCE ENERGY"             =>    -921.517573278334
  "CUSTOM SCS-MP2 CORRELATION ENERGY"    =>      -1.734510381488
  "CUSTOM SCS-MP2 TOTAL ENERGY"          =>    -923.252083659822
  "HF TOTAL ENERGY"                      =>    -921.517573278334
  "MP2 CORRELATION ENERGY"               =>      -1.784299827577
  "MP2 DOUBLES ENERGY"                   =>      -1.784299827577
  "MP2 OPPOSITE-SPIN CORRELATION ENERGY" =>      -1.315088968034
  "MP2 SAME-SPIN CORRELATION ENERGY"     =>      -0.469210859543
  "MP2 SINGLES ENERGY"                   =>      -0.000000000000
  "MP2 TOTAL ENERGY"                     =>    -923.301873105911
  "NUCLEAR REPULSION ENERGY"             =>     813.294836572985
  "ONE-ELECTRON ENERGY"                  =>   -2874.800526412608
  "OPTIMIZATION ITERATIONS"              =>       4.000000000000
  "PCM POLARIZATION ENERGY"              =>       0.000000000000
  "PE ENERGY"                            =>       0.000000000000
  "SCF DIPOLE X"                         =>       2.482740698267
  "SCF DIPOLE Y"                         =>       0.415123503567
  "SCF DIPOLE Z"                         =>      -0.536263822989
  "SCF ITERATION ENERGY"                 =>    -921.517573278334
  "SCF ITERATIONS"                       =>      13.000000000000
  "SCF TOTAL ENERGY"                     =>    -921.517573278334
  "SCS-MP2 CORRELATION ENERGY"           =>      -1.734510381488
  "SCS-MP2 TOTAL ENERGY"                 =>    -923.252083659822
  "TWO-ELECTRON ENERGY"                  =>    1139.988116561289



    Psi4 stopped on: Saturday, 11 December 2021 05:40PM
    Psi4 wall time for execution: 0:08:20.26

*** Psi4 exiting successfully. Buy a developer a beer!
