
    -----------------------------------------------------------------------
          Psi4: An Open-Source Ab Initio Electronic Structure Package
                               Psi4 1.4 release

                         Git: Rev {HEAD} 9485035 


    D. G. A. Smith, L. A. Burns, A. C. Simmonett, R. M. Parrish,
    M. C. Schieber, R. Galvelis, P. Kraus, H. Kruse, R. Di Remigio,
    A. Alenaizan, A. M. James, S. Lehtola, J. P. Misiewicz, M. Scheurer,
    R. A. Shaw, J. B. Schriber, Y. Xie, Z. L. Glick, D. A. Sirianni,
    J. S. O'Brien, J. M. Waldrop, A. Kumar, E. G. Hohenstein,
    B. P. Pritchard, B. R. Brooks, H. F. Schaefer III, A. Yu. Sokolov,
    K. Patkowski, A. E. DePrince III, U. Bozkaya, R. A. King,
    F. A. Evangelista, J. M. Turney, T. D. Crawford, C. D. Sherrill,
    J. Chem. Phys. 152(18) 184108 (2020). https://doi.org/10.1063/5.0006002

                            Additional Code Authors
    E. T. Seidl, C. L. Janssen, E. F. Valeev, M. L. Leininger,
    J. F. Gonthier, R. M. Richard, H. R. McAlexander, M. Saitow, X. Wang,
    P. Verma, and M. H. Lechner

             Previous Authors, Complete List of Code Contributors,
                       and Citations for Specific Modules
    https://github.com/psi4/psi4/blob/master/codemeta.json
    https://github.com/psi4/psi4/graphs/contributors
    http://psicode.org/psi4manual/master/introduction.html#citing-psifour

    -----------------------------------------------------------------------


    Psi4 started on: Wednesday, 09 February 2022 02:44PM

    Process ID: 2671588
    Host:       skylm004.palmetto.clemson.edu
    PSIDATADIR: /home/maxbuskirk/.conda/envs/psifour/share/psi4
    Memory:     500.0 MiB
    Threads:    1
    
  ==> Input File <==

--------------------------------------------------------------------------
memory 62 GB

molecule mol {
0 1
 C     1.511290    -0.280966    -0.092593
 C    -0.000000     0.000000     0.000000
 C    -0.605968    -1.226439    -0.664954
 C     0.319060    -1.848819    -1.451355
 C     1.653820    -1.134973    -1.365322
 C    -2.027094    -1.583009    -0.507457
 C    -2.438238    -2.928025    -0.366876
 C    -3.794208    -3.253627    -0.211477
 C    -4.766046    -2.240264    -0.182231
 C    -4.369571    -0.897483    -0.299270
 C    -3.014139    -0.572542    -0.452922
 C     0.120138    -2.993149    -2.399423
 H    -2.715369     0.476287    -0.545440
 H    -5.118805    -0.100426    -0.268581
 O    -6.099328    -2.559996    -0.025611
 H    -4.091097    -4.301038    -0.099616
 H    -1.681648    -3.717845    -0.347819
 H     1.812305    -0.886836     0.778541
 H     2.127353     0.631886    -0.103726
 H     2.509857    -1.831293    -1.328975
 H     1.794964    -0.502471    -2.264944
 H    -0.944311    -3.224044    -2.552012
 H     0.568816    -2.749556    -3.378502
 H     0.625600    -3.906462    -2.037287
 H    -0.354002     0.144380     1.034324
 H    -0.267853     0.913064    -0.567140
 H    -6.616502    -1.766689    -0.027354
}

set scf_type df
set basis cc-pVDZ
set reference rhf

mol.update_geometry()
mol.symmetrize(1e-3)

e, wfn = optimize('CCSD', return_wfn=True)
oeprop(wfn, "MULLIKEN_CHARGES")
mol.print_out()
print_variables()
--------------------------------------------------------------------------

  Memory set to  57.742 GiB by Python driver.

Scratch directory: /scratch1/maxbuskirk/
gradient() will perform analytic gradient computation.

*** tstart() called on skylm004.palmetto.clemson.edu
*** at Wed Feb  9 14:44:40 2022

   => Loading Basis Set <=

    Name: CC-PVDZ
    Role: ORBITAL
    Keyword: BASIS
    atoms 1-12         entry C          line   138 file /home/maxbuskirk/.conda/envs/psifour/share/psi4/basis/cc-pvdz.gbs 
    atoms 13-14, 16-27 entry H          line    22 file /home/maxbuskirk/.conda/envs/psifour/share/psi4/basis/cc-pvdz.gbs 
    atoms 15           entry O          line   198 file /home/maxbuskirk/.conda/envs/psifour/share/psi4/basis/cc-pvdz.gbs 


         ---------------------------------------------------------
                                   SCF
               by Justin Turney, Rob Parrish, Andy Simmonett
                          and Daniel G. A. Smith
                              RHF Reference
                        1 Threads,  59127 MiB Core
         ---------------------------------------------------------

  ==> Geometry <==

    Molecular point group: c1
    Full point group: C1

    Geometry (in Angstrom), charge = 0, multiplicity = 1:

       Center              X                  Y                   Z               Mass       
    ------------   -----------------  -----------------  -----------------  -----------------
         C            3.343161681350     1.381498185863     0.528507420066    12.000000000000
         C            1.831871681350     1.662464185863     0.621100420066    12.000000000000
         C            1.225903681350     0.436025185863    -0.043853579934    12.000000000000
         C            2.150931681350    -0.186354814137    -0.830254579934    12.000000000000
         C            3.485691681350     0.527491185863    -0.744221579934    12.000000000000
         C           -0.195222318650     0.079455185863     0.113643420066    12.000000000000
         C           -0.606366318650    -1.265560814137     0.254224420066    12.000000000000
         C           -1.962336318650    -1.591162814137     0.409623420066    12.000000000000
         C           -2.934174318650    -0.577799814137     0.438869420066    12.000000000000
         C           -2.537699318650     0.764981185863     0.321830420066    12.000000000000
         C           -1.182267318650     1.089922185863     0.168178420066    12.000000000000
         C            1.952009681350    -1.330684814137    -1.778322579934    12.000000000000
         H           -0.883497318650     2.138751185863     0.075660420066     1.007825032230
         H           -3.286933318650     1.562038185863     0.352519420066     1.007825032230
         O           -4.267456318650    -0.897531814137     0.595489420066    15.994914619570
         H           -2.259225318650    -2.638573814137     0.521484420066     1.007825032230
         H            0.150223681350    -2.055380814137     0.273281420066     1.007825032230
         H            3.644176681350     0.775628185863     1.399641420066     1.007825032230
         H            3.959224681350     2.294350185863     0.517374420066     1.007825032230
         H            4.341728681350    -0.168828814137    -0.707874579934     1.007825032230
         H            3.626835681350     1.159993185863    -1.643843579934     1.007825032230
         H            0.887560681350    -1.561579814137    -1.930911579934     1.007825032230
         H            2.400687681350    -1.087091814137    -2.757401579934     1.007825032230
         H            2.457471681350    -2.243997814137    -1.416186579934     1.007825032230
         H            1.477869681350     1.806844185863     1.655424420066     1.007825032230
         H            1.564018681350     2.575528185863     0.053960420066     1.007825032230
         H           -4.784630318650    -0.104224814137     0.593746420066     1.007825032230

  Running in c1 symmetry.

  Rotational constants: A =      0.06639  B =      0.01409  C =      0.01232 [cm^-1]
  Rotational constants: A =   1990.39664  B =    422.52470  C =    369.24234 [MHz]
  Nuclear repulsion =  744.703870898503169

  Charge       = 0
  Multiplicity = 1
  Electrons    = 94
  Nalpha       = 47
  Nbeta        = 47

  ==> Algorithm <==

  SCF Algorithm Type is DF.
  DIIS enabled.
  MOM disabled.
  Fractional occupation disabled.
  Guess Type is SAD.
  Energy threshold   = 1.00e-10
  Density threshold  = 1.00e-10
  Integral threshold = 1.00e-12

  ==> Primary Basis <==

  Basis Set: CC-PVDZ
    Blend: CC-PVDZ
    Number of shells: 120
    Number of basis functions: 252
    Number of Cartesian functions: 265
    Spherical Harmonics?: true
    Max angular momentum: 2

   => Loading Basis Set <=

    Name: (CC-PVDZ AUX)
    Role: JKFIT
    Keyword: DF_BASIS_SCF
    atoms 1-12         entry C          line   121 file /home/maxbuskirk/.conda/envs/psifour/share/psi4/basis/cc-pvdz-jkfit.gbs 
    atoms 13-14, 16-27 entry H          line    51 file /home/maxbuskirk/.conda/envs/psifour/share/psi4/basis/cc-pvdz-jkfit.gbs 
    atoms 15           entry O          line   221 file /home/maxbuskirk/.conda/envs/psifour/share/psi4/basis/cc-pvdz-jkfit.gbs 

  ==> Integral Setup <==

  DFHelper Memory: AOs need 0.530 GiB; user supplied 43.306 GiB. Using in-core AOs.

  ==> MemDFJK: Density-Fitted J/K Matrices <==

    J tasked:                   Yes
    K tasked:                   Yes
    wK tasked:                   No
    OpenMP threads:               1
    Memory [MiB]:             44345
    Algorithm:                 Core
    Schwarz Cutoff:           1E-12
    Mask sparsity (%):      12.8433
    Fitting Condition:        1E-10

   => Auxiliary Basis Set <=

  Basis Set: (CC-PVDZ AUX)
    Blend: CC-PVDZ-JKFIT
    Number of shells: 438
    Number of basis functions: 1232
    Number of Cartesian functions: 1403
    Spherical Harmonics?: true
    Max angular momentum: 3

  Minimum eigenvalue in the overlap matrix is 3.4315450168E-04.
  Reciprocal condition number of the overlap matrix is 5.3160727989E-05.
    Using symmetric orthogonalization.

  ==> Pre-Iterations <==

  SCF Guess: Superposition of Atomic Densities via on-the-fly atomic UHF (no occupation information).

   -------------------------
    Irrep   Nso     Nmo    
   -------------------------
     A        252     252 
   -------------------------
    Total     252     252
   -------------------------

  ==> Iterations <==

                           Total Energy        Delta E     RMS |[F,P]|

   @DF-RHF iter SAD:  -536.68113900823130   -5.36681e+02   0.00000e+00 
   @DF-RHF iter   1:  -537.17627212434786   -4.95133e-01   2.55028e-03 DIIS
   @DF-RHF iter   2:  -537.41614334042538   -2.39871e-01   1.11430e-03 DIIS
   @DF-RHF iter   3:  -537.45661462870919   -4.04713e-02   2.83476e-04 DIIS
   @DF-RHF iter   4:  -537.46056463363084   -3.95000e-03   1.18262e-04 DIIS
   @DF-RHF iter   5:  -537.46109915569753   -5.34522e-04   2.22966e-05 DIIS
   @DF-RHF iter   6:  -537.46112688583878   -2.77301e-05   9.47255e-06 DIIS
   @DF-RHF iter   7:  -537.46113115689627   -4.27106e-06   2.48234e-06 DIIS
   @DF-RHF iter   8:  -537.46113172366290   -5.66767e-07   1.04116e-06 DIIS
   @DF-RHF iter   9:  -537.46113182625788   -1.02595e-07   4.44478e-07 DIIS
   @DF-RHF iter  10:  -537.46113185149079   -2.52329e-08   2.04604e-07 DIIS
   @DF-RHF iter  11:  -537.46113185916340   -7.67261e-09   8.94291e-08 DIIS
   @DF-RHF iter  12:  -537.46113186056573   -1.40233e-09   3.67893e-08 DIIS
   @DF-RHF iter  13:  -537.46113186076411   -1.98384e-10   1.28467e-08 DIIS
   @DF-RHF iter  14:  -537.46113186078173   -1.76215e-11   4.85583e-09 DIIS
   @DF-RHF iter  15:  -537.46113186078526   -3.52429e-12   1.73780e-09 DIIS
   @DF-RHF iter  16:  -537.46113186078435    9.09495e-13   8.76271e-10 DIIS
   @DF-RHF iter  17:  -537.46113186078560   -1.25056e-12   3.68754e-10 DIIS
   @DF-RHF iter  18:  -537.46113186078378    1.81899e-12   1.42426e-10 DIIS
   @DF-RHF iter  19:  -537.46113186078435   -5.68434e-13   6.52106e-11 DIIS
  Energy and wave function converged.


  ==> Post-Iterations <==

    Orbital Energies [Eh]
    ---------------------

    Doubly Occupied:                                                      

       1A    -20.585611     2A    -11.307519     3A    -11.248002  
       4A    -11.246542     5A    -11.241187     6A    -11.240280  
       7A    -11.237624     8A    -11.232381     9A    -11.228785  
      10A    -11.228417    11A    -11.227715    12A    -11.227489  
      13A    -11.225211    14A     -1.399783    15A     -1.156699  
      16A     -1.126295    17A     -1.023959    18A     -1.017013  
      19A     -1.004256    20A     -0.940720    21A     -0.899005  
      22A     -0.842324    23A     -0.822377    24A     -0.779123  
      25A     -0.728680    26A     -0.713291    27A     -0.653252  
      28A     -0.644049    29A     -0.637008    30A     -0.616968  
      31A     -0.587289    32A     -0.581759    33A     -0.581116  
      34A     -0.570655    35A     -0.563559    36A     -0.548213  
      37A     -0.539542    38A     -0.504619    39A     -0.493626  
      40A     -0.488122    41A     -0.477479    42A     -0.474882  
      43A     -0.462258    44A     -0.459350    45A     -0.351399  
      46A     -0.338503    47A     -0.279582  

    Virtual:                                                              

      48A      0.125123    49A      0.127984    50A      0.177972  
      51A      0.181325    52A      0.199150    53A      0.201279  
      54A      0.206120    55A      0.219344    56A      0.232859  
      57A      0.244573    58A      0.259535    59A      0.268564  
      60A      0.271722    61A      0.286888    62A      0.292047  
      63A      0.300938    64A      0.319572    65A      0.342759  
      66A      0.365821    67A      0.391469    68A      0.396641  
      69A      0.409038    70A      0.420046    71A      0.433228  
      72A      0.443320    73A      0.472211    74A      0.506550  
      75A      0.520499    76A      0.542810    77A      0.579911  
      78A      0.597905    79A      0.629473    80A      0.633993  
      81A      0.643014    82A      0.661813    83A      0.669489  
      84A      0.674768    85A      0.691639    86A      0.698662  
      87A      0.708530    88A      0.718421    89A      0.726320  
      90A      0.739977    91A      0.745399    92A      0.748536  
      93A      0.756974    94A      0.774445    95A      0.785296  
      96A      0.804824    97A      0.815585    98A      0.831648  
      99A      0.838750   100A      0.842538   101A      0.858743  
     102A      0.862306   103A      0.870375   104A      0.879170  
     105A      0.883770   106A      0.885778   107A      0.888991  
     108A      0.897913   109A      0.901279   110A      0.912759  
     111A      0.917905   112A      0.929219   113A      0.933286  
     114A      0.933515   115A      0.943992   116A      0.948541  
     117A      0.957359   118A      0.965525   119A      0.985421  
     120A      0.997339   121A      1.015761   122A      1.024779  
     123A      1.041424   124A      1.065262   125A      1.115750  
     126A      1.129327   127A      1.136625   128A      1.154883  
     129A      1.177934   130A      1.188622   131A      1.210840  
     132A      1.238448   133A      1.262220   134A      1.272148  
     135A      1.280836   136A      1.287780   137A      1.304560  
     138A      1.316388   139A      1.323795   140A      1.346218  
     141A      1.350309   142A      1.363630   143A      1.381136  
     144A      1.401010   145A      1.436133   146A      1.461936  
     147A      1.481281   148A      1.496195   149A      1.500505  
     150A      1.518543   151A      1.554308   152A      1.567847  
     153A      1.578612   154A      1.605918   155A      1.610047  
     156A      1.627568   157A      1.650541   158A      1.687906  
     159A      1.705801   160A      1.729199   161A      1.745509  
     162A      1.765064   163A      1.773382   164A      1.791371  
     165A      1.809299   166A      1.812181   167A      1.832425  
     168A      1.845507   169A      1.854216   170A      1.869846  
     171A      1.879320   172A      1.885858   173A      1.891373  
     174A      1.903373   175A      1.912154   176A      1.915292  
     177A      1.927873   178A      1.935299   179A      1.940286  
     180A      1.946762   181A      1.969594   182A      1.973539  
     183A      1.986238   184A      1.997177   185A      2.018670  
     186A      2.028859   187A      2.030610   188A      2.035575  
     189A      2.048439   190A      2.060585   191A      2.065213  
     192A      2.077408   193A      2.090909   194A      2.101412  
     195A      2.112988   196A      2.120111   197A      2.133011  
     198A      2.142084   199A      2.159345   200A      2.188517  
     201A      2.192293   202A      2.218156   203A      2.241924  
     204A      2.257762   205A      2.268481   206A      2.276655  
     207A      2.297327   208A      2.314902   209A      2.342473  
     210A      2.354478   211A      2.379812   212A      2.398778  
     213A      2.406853   214A      2.425826   215A      2.433603  
     216A      2.458297   217A      2.470638   218A      2.471061  
     219A      2.501964   220A      2.524153   221A      2.532923  
     222A      2.536288   223A      2.549223   224A      2.622104  
     225A      2.628643   226A      2.662220   227A      2.678393  
     228A      2.727079   229A      2.732050   230A      2.758870  
     231A      2.769967   232A      2.775019   233A      2.804386  
     234A      2.823288   235A      2.830847   236A      2.865687  
     237A      2.916243   238A      2.941504   239A      2.955569  
     240A      2.981369   241A      3.014219   242A      3.027628  
     243A      3.063287   244A      3.125858   245A      3.190906  
     246A      3.250976   247A      3.260189   248A      3.337572  
     249A      3.554862   250A      3.663295   251A      3.926617  
     252A      4.194286  

    Final Occupation by Irrep:
              A 
    DOCC [    47 ]

  @DF-RHF Final Energy:  -537.46113186078435

   => Energetics <=

    Nuclear Repulsion Energy =            744.7038708985031690
    One-Electron Energy =               -2206.7629667083738241
    Two-Electron Energy =                 924.5979639490861928
    Total Energy =                       -537.4611318607843486

Computation Completed


Properties will be evaluated at   0.000000,   0.000000,   0.000000 [a0]

Properties computed using the SCF density matrix

  Nuclear Dipole Moment: [e a0]
     X:    12.4436      Y:     2.2957      Z:    -2.8219

  Electronic Dipole Moment: [e a0]
     X:   -12.3667      Y:    -1.7811      Z:     2.7016

  Dipole Moment: [e a0]
     X:     0.0769      Y:     0.5146      Z:    -0.1203     Total:     0.5341

  Dipole Moment: [D]
     X:     0.1954      Y:     1.3081      Z:    -0.3058     Total:     1.3575


*** tstop() called on skylm004.palmetto.clemson.edu at Wed Feb  9 14:44:52 2022
Module time:
	user time   =      11.09 seconds =       0.18 minutes
	system time =       0.70 seconds =       0.01 minutes
	total time  =         12 seconds =       0.20 minutes
Total time:
	user time   =      11.09 seconds =       0.18 minutes
	system time =       0.70 seconds =       0.01 minutes
	total time  =         12 seconds =       0.20 minutes
 MINTS: Wrapper to libmints.
   by Justin Turney

   Calculation information:
      Number of threads:                 1
      Number of atoms:                  27
      Number of AO shells:             120
      Number of SO shells:             120
      Number of primitives:            356
      Number of atomic orbitals:       265
      Number of basis functions:       252

      Number of irreps:                  1
      Integral cutoff                 1.00e-12
      Number of functions per irrep: [ 252 ]

 OEINTS: Overlap, kinetic, potential, dipole, and quadrupole integrals
         stored in file 35.

      Computing two-electron integrals...done
      Computed 301528099 non-zero two-electron integrals.
        Stored in file 33.


*** tstart() called on skylm004.palmetto.clemson.edu
*** at Wed Feb  9 14:49:43 2022


	Wfn Parameters:
	--------------------
	Wavefunction         = CCSD
	Number of irreps     = 1
	Number of MOs        = 252
	Number of active MOs = 252
	AO-Basis             = NONE
	Semicanonical        = false
	Reference            = RHF
	Print Level          = 1

	IRREP	# MOs	# FZDC	# DOCC	# SOCC	# VIRT	# FZVR
	-----	-----	------	------	------	------	------
	 A	   252	    0	    47	    0	    205	    0
	Transforming integrals...
	IWL integrals will be deleted.
	(OO|OO)...
	Presorting SO-basis two-electron integrals.
	Sorting File: SO Ints (nn|nn) nbuckets = 1
	Constructing frozen core operators
	Starting first half-transformation.
	Sorting half-transformed integrals.
	First half integral transformation complete.
	Starting second half-transformation.
	Two-electron integral transformation complete.
	(OO|OV)...
	Starting second half-transformation.
	Two-electron integral transformation complete.
	(OO|VV)...
	Starting second half-transformation.
	Two-electron integral transformation complete.
	(OV|OO)...
	Starting first half-transformation.
	Sorting half-transformed integrals.
	First half integral transformation complete.
	Starting second half-transformation.
	Two-electron integral transformation complete.
	(OV|OV)...
	Starting second half-transformation.
	Two-electron integral transformation complete.
	(OV|VV)...
	Starting second half-transformation.
	Two-electron integral transformation complete.
	(VV|OO)...
	Starting first half-transformation.
	Sorting half-transformed integrals.
	First half integral transformation complete.
	Starting second half-transformation.
	Two-electron integral transformation complete.
	(VV|OV)...
	Starting second half-transformation.
	Two-electron integral transformation complete.
	(VV|VV)...
	Starting second half-transformation.
	Two-electron integral transformation complete.
	Frozen core energy     =      0.00000000000000

	Size of irrep 0 of <ab|cd> integrals:   1766.101 (MW) /  14128.805 (MB)
	Total:                                  1766.101 (MW) /  14128.805 (MB)

	Size of irrep 0 of <ia|bc> integrals:    404.911 (MW) /   3239.287 (MB)
	Total:                                   404.911 (MW) /   3239.287 (MB)

	Size of irrep 0 of tijab amplitudes:      92.833 (MW) /    742.666 (MB)
	Total:                                    92.833 (MW) /    742.666 (MB)

	Nuclear Rep. energy          =    744.70387089850317
	SCF energy                   =   -537.46113186078435
	One-electron energy          =  -2206.76296669723706
	Two-electron energy          =    924.59718065912955
	Reference energy             =   -537.46191513960423

*** tstop() called on skylm004.palmetto.clemson.edu at Wed Feb  9 14:59:41 2022
Module time:
	user time   =     177.98 seconds =       2.97 minutes
	system time =      98.79 seconds =       1.65 minutes
	total time  =        598 seconds =       9.97 minutes
Total time:
	user time   =     341.70 seconds =       5.70 minutes
	system time =     109.65 seconds =       1.83 minutes
	total time  =        901 seconds =      15.02 minutes
            **************************
            *                        *
            *        CCENERGY        *
            *                        *
            **************************

    Nuclear Rep. energy (wfn)     =  744.703870898503169
    SCF energy          (wfn)     = -537.461131860784349
    Reference energy    (file100) = -537.461915139604230

    Input parameters:
    -----------------
    Wave function   =     CCSD
    Reference wfn   =     RHF
    Brueckner       =     No
    Memory (Mbytes) =     62000.0
    Maxiter         =     50
    R_Convergence   =     1.0e-07
    E_Convergence   =     1.0e-08
    Restart         =     Yes
    DIIS            =     Yes
    AO Basis        =     NONE
    ABCD            =     NEW
    Cache Level     =     2
    Cache Type      =     LOW
    Print Level     =     1
    Num. of threads =     1
    # Amps to Print =     10
    Print MP2 Amps? =     No
    Analyze T2 Amps =     No
    Print Pair Ener =     No
    Local CC        =     No
    SCS-MP2         =     False
    SCSN-MP2        =     False
    SCS-CCSD        =     False

MP2 correlation energy -1.8301169124205428
                Solving CC Amplitude Equations
                ------------------------------
  Iter             Energy              RMS        T1Diag      D1Diag    New D1Diag    D2Diag
  ----     ---------------------    ---------   ----------  ----------  ----------   --------
     0        -1.830116912420543    0.000e+00    0.000000    0.000000    0.000000    0.181752
     1        -1.854819562313077    1.307e-01    0.007452    0.028235    0.028235    0.173395
     2        -1.903821058425839    4.676e-02    0.007516    0.026099    0.026099    0.187485
     3        -1.915708327473558    2.015e-02    0.008674    0.033534    0.033534    0.192789
     4        -1.915849148635062    6.517e-03    0.008807    0.033687    0.033687    0.194686
     5        -1.915965952730289    3.018e-03    0.008889    0.034977    0.034977    0.195796
     6        -1.916049934007129    8.517e-04    0.008909    0.035324    0.035324    0.196081
     7        -1.916027054484413    3.108e-04    0.008911    0.035406    0.035406    0.196116
     8        -1.916017591226313    1.122e-04    0.008912    0.035456    0.035456    0.196121
     9        -1.916020465565847    4.345e-05    0.008913    0.035474    0.035474    0.196122
    10        -1.916019196412732    1.955e-05    0.008914    0.035484    0.035484    0.196120
    11        -1.916018473386803    7.878e-06    0.008914    0.035488    0.035488    0.196119
    12        -1.916018235463590    3.420e-06    0.008914    0.035490    0.035490    0.196119
    13        -1.916018080776759    1.415e-06    0.008914    0.035490    0.035490    0.196119
    14        -1.916018016114463    7.879e-07    0.008914    0.035490    0.035490    0.196119
    15        -1.916018011822088    3.421e-07    0.008914    0.035490    0.035490    0.196119
    16        -1.916018007384231    1.751e-07    0.008914    0.035490    0.035490    0.196119
    17        -1.916018008849385    7.804e-08    0.008914    0.035490    0.035490    0.196119

    Iterations converged.


    Largest TIA Amplitudes:
             31   0         0.0183632120
             45  44         0.0155480562
             45   1        -0.0114388429
             45  84        -0.0101741611
             31   6         0.0098997570
             31   1        -0.0098834349
             44  43         0.0091760632
             31  17        -0.0090945775
             42   0        -0.0087202649
             44   0        -0.0075776573

    Largest TIjAb Amplitudes:
     45  45   1   1        -0.0721688107
     46  46   0   0        -0.0566220533
     45  45   0   0        -0.0348202533
     44  44   0   0        -0.0339887939
     44  46   0   6         0.0328578516
     46  44   6   0         0.0328578516
     46  46   1   1        -0.0318498480
     45  46   0   1        -0.0284713147
     46  45   1   0        -0.0284713147
     46  46   6   6        -0.0279172444

    SCF energy       (wfn)                    = -537.461131860784349
    Reference energy (file100)                = -537.461915139604230

    Opposite-spin MP2 correlation energy      =   -1.351361343956966
    Same-spin MP2 correlation energy          =   -0.478755568463576
    Singles MP2 correlation energy            =   -0.000000000000000
    MP2 correlation energy                    =   -1.830116912420543
      * MP2 total energy                      = -539.292032052024751

    Opposite-spin CCSD correlation energy     =   -1.486423387628509
    Same-spin CCSD correlation energy         =   -0.429594621220877
    Singles CCSD correlation energy           =    0.000000000000000
    CCSD correlation energy                   =   -1.916018008849385
      * CCSD total energy                     = -539.377933148453621


			**************************
			*                        *
			*         CCHBAR         *
			*                        *
			**************************


			**************************
			*        CCLAMBDA        *
			**************************


	Nuclear Rep. energy (wfn)     =  744.703870898503169
	Reference           (wfn)     =                    0
	SCF energy          (wfn)     = -537.461131860784349
	Reference energy    (CC_INFO) = -537.461915139604230
	CCSD energy         (CC_INFO) =   -1.916018008849385
	Total CCSD energy   (CC_INFO) = -539.377933148453621

	Input parameters:
	-----------------
	Maxiter           =     50
	Convergence       = 1.0e-07
	Restart           =     No
	Cache Level       =     2
	Model III         =     No
	DIIS              =     Yes
	AO Basis          =     No
	ABCD              =     NEW
	Local CC          =     No
	Parameters for left-handed eigenvectors:
	    Irr   Root  Ground-State?    EOM energy        R0
	  1   0     0        Yes       0.0000000000   1.0000000000
	Labels for eigenvector 1:
	LIA 0 -1, Lia 0 -1, LIJAB 0 -1, Lijab 0 -1, LIjAb 0 -1, 2LIjAb - LIjbA 0 -1
	Symmetry of left-hand state: A
	Symmetry of left-hand eigenvector: A

	          Solving Lambda Equations
	          ------------------------
	Iter     PseudoEnergy or Norm         RMS  
	----     ---------------------     --------
	   0        -1.916177655376492    0.000e+00
	   1        -1.859992181446266    3.555e-02
	   2        -1.854946938461276    7.596e-03
	   3        -1.853558396116797    3.470e-03
	   4        -1.853261560460960    1.246e-03
	   5        -1.853345114246226    6.475e-04
	   6        -1.853349815728675    2.222e-04
	   7        -1.853341944779713    9.706e-05
	   8        -1.853344340083011    3.873e-05
	   9        -1.853345186759076    1.613e-05
	  10        -1.853345065319348    6.547e-06
	  11        -1.853345187764463    3.032e-06
	  12        -1.853345079140538    1.378e-06
	  13        -1.853345040054766    6.210e-07
	  14        -1.853345038217603    3.001e-07
	  15        -1.853345030481077    1.538e-07
	  16        -1.853345031412569    7.946e-08

	Largest LIA Amplitudes:
	         31   0         0.0127044317
	         45  44         0.0122677055
	         45   1        -0.0088463944
	         45  84        -0.0082285378
	         44  43         0.0073095087
	         31   1        -0.0069234613
	         31   6         0.0067632568
	         31  17        -0.0063388827
	         42   0        -0.0060819311
	         44  82        -0.0058233231

	Largest LIjAb Amplitudes:
	 45  45   1   1        -0.0677109146
	 46  46   0   0        -0.0522887774
	 45  45   0   0        -0.0319816120
	 44  44   0   0        -0.0313497596
	 44  46   0   6         0.0307354659
	 46  44   6   0         0.0307354659
	 46  46   1   1        -0.0285816698
	 45  46   0   1        -0.0267015671
	 46  45   1   0        -0.0267015671
	 46  46   6   6        -0.0258937615

	Iterations converged.

	Overlap <L|e^T> =        0.28704075707

			**************************
			*                        *
			*        CCDENSITY       *
			*                        *
			**************************


	Input parameters:
	-----------------
	Wave function    =   CCSD
	Reference wfn    =   RHF
	Dertype          = 1
	Tolerance        = 1.0e-14
	Cache Level      = 2
	AO Basis         = No
	OPDM Only        = No
	Relax OPDM       = Yes
	Compute Xi       = No
	Use Zeta         = No
	Xi connected     = Yes
	Compute NO       = No

	Nuclear Rep. energy (wfn)     =  744.703870898503169
	SCF energy          (wfn)     = -537.461131860784349
	Reference energy    (file100) = -537.461915139604230
	CCSD energy         (CC_INFO) =   -1.916018008849385
	Total CCSD energy   (CC_INFO) = -539.377933148453621
	Number of States = 1

	Ground?  State     EOM Energy       R0
	  Yes     0  A    0.0000000000   1.00000000

	Virial Theorem Data:
	--------------------
	Kinetic energy (ref)   =  536.615433045333816
	Kinetic energy (corr)  =    1.841086026590961
	Kinetic energy (total) =  538.456519071924731
	-V/T (ref)             =    2.001577446420925
	-V/T (corr)            =    2.040699881035528
	-V/T (total)           =    2.001711213522156
    Molecular point group: c1
    Full point group: C1

    Geometry (in Bohr), charge = 0, multiplicity = 1:

       Center              X                  Y                   Z       
    ------------   -----------------  -----------------  -----------------
         C            6.317659970876     2.610653214097     0.998734279196
         C            3.461735774733     3.141602004663     1.173709690331
         C            2.316622213941     0.823968185082    -0.082871255697
         C            4.064671792321    -0.352159560880    -1.568953770483
         C            6.587002635538     0.996813874874    -1.406374962732
         C           -0.368916715826     0.150148540528     0.214754939884
         C           -1.145866273951    -2.391563333831     0.480414528327
         C           -3.708278208288    -3.006861939732     0.774076078497
         C           -5.544785866601    -1.091883404060     0.829343008762
         C           -4.795556701010     1.445604932409     0.608171352765
         C           -2.234161439328     2.059654429341     0.317811154136
         C            3.688763691993    -2.514629858025    -3.360542638794
         H           -1.669567964825     4.041653991779     0.142977472461
         H           -6.211403764891     2.951824368788     0.666165157829
         O           -8.064323694604    -1.696089317605     1.125311914532
         H           -4.269317107949    -4.986181870524     0.985462732617
         H            0.283881615309    -3.884106822240     0.516427039100
         H            6.886495880531     1.465724846466     2.644938957771
         H            7.481850316904     4.335693487174     0.977695958242
         H            8.204678118796    -0.319040220805    -1.337689087250
         H            6.853726139789     2.192069428678    -3.106414159168
         H            1.677246607476    -2.950958171763    -3.648894058551
         H            4.536642230511    -2.054305801947    -5.210733803981
         H            4.643948438819    -4.240541294845    -2.676204778625
         H            2.792768946869     3.414440662656     3.128298775319
         H            2.955566962851     4.867042899678     0.101970415539
         H           -9.041640913811    -0.196956354196     1.122018121895

	Presorting MO-basis TPDM.
	Sorting File: MO TPDM (AA|AA) nbuckets = 1
	Starting first half-transformation.
	Sorting half-transformed TPDM.
	First half integral transformation complete.


  -Total gradient:
     Atom            X                  Y                   Z
    ------   -----------------  -----------------  -----------------
       1       -0.000912333513    -0.001252221334    -0.000305309985
       2        0.000055987074    -0.000780795827    -0.001202921715
       3       -0.009307340051     0.003738715382     0.006800711685
       4        0.007075948011    -0.005185704328    -0.005609617512
       5       -0.002203861331     0.000261316235     0.000769180460
       6        0.005177331162     0.000252679794    -0.001150796714
       7        0.004091843332    -0.006270028220    -0.000594488351
       8        0.000990104961     0.004926302048    -0.000481359962
       9        0.011273790026    -0.008569859253    -0.000713367675
      10       -0.005968852314    -0.000488289795     0.000701472042
      11       -0.000799312496     0.004619758168     0.000099023021
      12        0.000048378280     0.001883725221     0.001327376341
      13        0.000686406397    -0.000241888220    -0.000149510752
      14        0.001370465025    -0.000772301344    -0.000114863728
      15       -0.018936675054     0.026293405283     0.000324588989
      16        0.002316051425    -0.000910617876    -0.000248223680
      17        0.001220620684     0.000655038321     0.000061183484
      18       -0.000682558321     0.000426534633    -0.001174310080
      19       -0.000739350761    -0.000858656047    -0.000098725131
      20       -0.000963309909     0.000429494036    -0.000201665473
      21       -0.000410763380    -0.000410301864     0.000757408775
      22        0.000511404279     0.000317563408     0.000572872642
      23       -0.000352589599    -0.000128676796     0.001208229718
      24       -0.000469336219     0.001117258301    -0.000300560520
      25        0.000074764232    -0.000312029716    -0.001018510170
      26        0.000350146187    -0.000975254088     0.000234795079
      27        0.006503041871    -0.017765166125     0.000507389212


			-----------------------------------------
			 OPTKING 2.0: for geometry optimizations 
			  - R.A. King,  Bethel University        
			-----------------------------------------

	Internal coordinates to be generated automatically.
	Detected frag 1 with atoms:  1 2 3 4 5 6 7 8 9 10 11 12 13 14 15 16 17 18 19 20
	 21 22 23 24 25 26 27
	---Fragment 1 Bond Connectivity---
	 1 : 2 5 18 19
	 2 : 1 3 25 26
	 3 : 2 4 6
	 4 : 3 5 12
	 5 : 1 4 20 21
	 6 : 3 7 11
	 7 : 6 8 17
	 8 : 7 9 16
	 9 : 8 10 15
	 10 : 9 11 14
	 11 : 6 10 13
	 12 : 4 22 23 24
	 13 : 11
	 14 : 10
	 15 : 9 27
	 16 : 8
	 17 : 7
	 18 : 1
	 19 : 1
	 20 : 5
	 21 : 5
	 22 : 12
	 23 : 12
	 24 : 12
	 25 : 2
	 26 : 2
	 27 : 15

	---Fragment 1 Geometry and Gradient---
	 C           6.3176599709        2.6106532141        0.9987342792
	 C           3.4617357747        3.1416020047        1.1737096903
	 C           2.3166222139        0.8239681851       -0.0828712557
	 C           4.0646717923       -0.3521595609       -1.5689537705
	 C           6.5870026355        0.9968138749       -1.4063749627
	 C          -0.3689167158        0.1501485405        0.2147549399
	 C          -1.1458662740       -2.3915633338        0.4804145283
	 C          -3.7082782083       -3.0068619397        0.7740760785
	 C          -5.5447858666       -1.0918834041        0.8293430088
	 C          -4.7955567010        1.4456049324        0.6081713528
	 C          -2.2341614393        2.0596544293        0.3178111541
	 C           3.6887636920       -2.5146298580       -3.3605426388
	 H          -1.6695679648        4.0416539918        0.1429774725
	 H          -6.2114037649        2.9518243688        0.6661651578
	 O          -8.0643236946       -1.6960893176        1.1253119145
	 H          -4.2693171079       -4.9861818705        0.9854627326
	 H           0.2838816153       -3.8841068222        0.5164270391
	 H           6.8864958805        1.4657248465        2.6449389578
	 H           7.4818503169        4.3356934872        0.9776959582
	 H           8.2046781188       -0.3190402208       -1.3376890872
	 H           6.8537261398        2.1920694287       -3.1064141592
	 H           1.6772466075       -2.9509581718       -3.6488940586
	 H           4.5366422305       -2.0543058019       -5.2107338040
	 H           4.6439484388       -4.2405412948       -2.6762047786
	 H           2.7927689469        3.4144406627        3.1282987753
	 H           2.9555669629        4.8670428997        0.1019704155
	 H          -9.0416409138       -0.1969563542        1.1220181219
	            -0.0009123335       -0.0012522213       -0.0003053100
	             0.0000559871       -0.0007807958       -0.0012029217
	            -0.0093073401        0.0037387154        0.0068007117
	             0.0070759480       -0.0051857043       -0.0056096175
	            -0.0022038613        0.0002613162        0.0007691805
	             0.0051773312        0.0002526798       -0.0011507967
	             0.0040918433       -0.0062700282       -0.0005944884
	             0.0009901050        0.0049263020       -0.0004813600
	             0.0112737900       -0.0085698593       -0.0007133677
	            -0.0059688523       -0.0004882898        0.0007014720
	            -0.0007993125        0.0046197582        0.0000990230
	             0.0000483783        0.0018837252        0.0013273763
	             0.0006864064       -0.0002418882       -0.0001495108
	             0.0013704650       -0.0007723013       -0.0001148637
	            -0.0189366751        0.0262934053        0.0003245890
	             0.0023160514       -0.0009106179       -0.0002482237
	             0.0012206207        0.0006550383        0.0000611835
	            -0.0006825583        0.0004265346       -0.0011743101
	            -0.0007393508       -0.0008586560       -0.0000987251
	            -0.0009633099        0.0004294940       -0.0002016655
	            -0.0004107634       -0.0004103019        0.0007574088
	             0.0005114043        0.0003175634        0.0005728726
	            -0.0003525896       -0.0001286768        0.0012082297
	            -0.0004693362        0.0011172583       -0.0003005605
	             0.0000747642       -0.0003120297       -0.0010185102
	             0.0003501462       -0.0009752541        0.0002347951
	             0.0065030419       -0.0177651661        0.0005073892

	Previous optimization step data not found.  Starting new optimization.

	---Fragment 1 Intrafragment Coordinates---
	 - Coordinate -           - BOHR/RAD -       - ANG/DEG -
	 R(1,2)           =         2.910125	       1.539972
	 R(1,5)           =         2.908878	       1.539312
	 R(1,18)          =         2.084328	       1.102979
	 R(1,19)          =         2.081237	       1.101343
	 R(2,3)           =         2.874319	       1.521024
	 R(2,25)          =         2.083837	       1.102719
	 R(2,26)          =         2.093318	       1.107736
	 R(3,4)           =         2.578254	       1.364353
	 R(3,6)           =         2.784732	       1.473617
	 R(4,5)           =         2.865016	       1.516101
	 R(4,12)          =         2.833262	       1.499298
	 R(5,20)          =         2.086400	       1.104075
	 R(5,21)          =         2.095211	       1.108738
	 R(6,7)           =         2.671053	       1.413460
	 R(6,11)          =         2.671324	       1.413604
	 R(7,8)           =         2.651563	       1.403147
	 R(7,17)          =         2.067163	       1.093895
	 R(8,9)           =         2.653857	       1.404361
	 R(8,16)          =         2.068129	       1.094407
	 R(9,10)          =         2.655016	       1.404974
	 R(9,15)          =         2.607822	       1.380000
	 R(10,11)         =         2.649927	       1.402281
	 R(10,14)         =         2.068014	       1.094346
	 R(11,13)         =         2.068249	       1.094470
	 R(12,22)         =         2.078396	       1.099840
	 R(12,23)         =         2.086625	       1.104194
	 R(12,24)         =         2.087934	       1.104887
	 R(15,27)         =         1.789570	       0.946999
	 B(1,2,3)         =         1.790127	     102.566700
	 B(1,2,25)        =         1.977226	     113.286730
	 B(1,2,26)        =         1.935744	     110.909973
	 B(1,5,4)         =         1.799406	     103.098356
	 B(1,5,20)        =         1.976291	     113.233108
	 B(1,5,21)        =         1.945680	     111.479279
	 B(2,1,5)         =         1.815021	     103.993068
	 B(2,1,18)        =         1.897117	     108.696781
	 B(2,1,19)        =         1.980503	     113.474479
	 B(2,3,4)         =         1.928043	     110.468727
	 B(2,3,6)         =         2.132448	     122.180296
	 B(3,2,25)        =         1.968972	     112.813790
	 B(3,2,26)        =         1.922464	     110.149081
	 B(3,4,5)         =         1.927736	     110.451137
	 B(3,4,12)        =         2.242975	     128.512983
	 B(3,6,7)         =         2.119286	     121.426120
	 B(3,6,11)        =         2.099640	     120.300495
	 B(4,3,6)         =         2.220651	     127.233923
	 B(4,5,20)        =         1.968736	     112.800279
	 B(4,5,21)        =         1.912013	     109.550255
	 B(4,12,22)       =         1.956670	     112.108928
	 B(4,12,23)       =         1.916015	     109.779573
	 B(4,12,24)       =         1.942233	     111.281772
	 B(5,1,18)        =         1.899693	     108.844371
	 B(5,1,19)        =         1.981979	     113.559042
	 B(5,4,12)        =         2.108376	     120.801049
	 B(6,7,8)         =         2.109388	     120.859024
	 B(6,7,17)        =         2.080147	     119.183628
	 B(6,11,10)       =         2.110063	     120.897728
	 B(6,11,13)       =         2.084192	     119.415378
	 B(7,6,11)        =         2.063785	     118.246186
	 B(7,8,9)         =         2.098568	     120.239106
	 B(7,8,16)        =         2.089281	     119.706964
	 B(8,7,17)        =         2.093145	     119.928351
	 B(8,9,10)        =         2.085899	     119.513219
	 B(8,9,15)        =         2.098751	     120.249566
	 B(9,8,16)        =         2.095250	     120.048967
	 B(9,10,11)       =         2.098279	     120.222516
	 B(9,10,14)       =         2.095045	     120.037222
	 B(9,15,27)       =         1.910634	     109.471244
	 B(10,9,15)       =         2.098475	     120.233743
	 B(10,11,13)      =         2.088843	     119.681864
	 B(11,10,14)      =         2.089860	     119.740132
	 B(18,1,19)       =         1.886638	     108.096378
	 B(20,5,21)       =         1.862719	     106.725958
	 B(22,12,23)      =         1.892897	     108.455036
	 B(22,12,24)      =         1.890932	     108.342411
	 B(23,12,24)      =         1.861979	     106.683530
	 B(25,2,26)       =         1.869917	     107.138345
	 D(1,2,3,4)       =        -0.348852	     -19.987768
	 D(1,2,3,6)       =         2.856778	     163.681328
	 D(1,5,4,3)       =         0.300808	      17.235016
	 D(1,5,4,12)      =        -2.930014	    -167.877438
	 D(2,1,5,4)       =        -0.499803	     -28.636594
	 D(2,1,5,20)      =        -2.632586	    -150.836039
	 D(2,1,5,21)      =         1.549857	      88.800282
	 D(2,3,4,5)       =         0.031048	       1.778925
	 D(2,3,4,12)      =        -3.012567	    -172.607364
	 D(2,3,6,7)       =        -2.462500	    -141.090867
	 D(2,3,6,11)      =         0.645400	      36.978697
	 D(3,2,1,5)       =         0.514363	      29.470838
	 D(3,2,1,18)      =        -1.507311	     -86.362554
	 D(3,2,1,19)      =         2.676299	     153.340666
	 D(3,4,5,20)      =         2.438658	     139.724821
	 D(3,4,5,21)      =        -1.772435	    -101.553028
	 D(3,4,12,22)     =         0.167316	       9.586503
	 D(3,4,12,23)     =         2.272366	     130.196980
	 D(3,4,12,24)     =        -1.953574	    -111.931530
	 D(3,6,7,8)       =         3.136447	     179.705195
	 D(3,6,7,17)      =         0.029066	       1.665353
	 D(3,6,11,10)     =        -3.138209	    -179.806114
	 D(3,6,11,13)     =         0.017671	       1.012458
	 D(4,3,2,25)      =        -2.482003	    -142.208323
	 D(4,3,2,26)      =         1.712697	      98.130327
	 D(4,3,6,7)       =         0.754466	      43.227732
	 D(4,3,6,11)      =        -2.420819	    -138.702704
	 D(4,5,1,18)      =         1.520059	      87.092954
	 D(4,5,1,19)      =        -2.660781	    -152.451540
	 D(5,1,2,25)      =         2.641906	     151.370088
	 D(5,1,2,26)      =        -1.537774	     -88.107935
	 D(5,4,3,6)       =         3.104559	     177.878117
	 D(5,4,12,22)     =        -2.867367	    -164.288012
	 D(5,4,12,23)     =        -0.762317	     -43.677535
	 D(5,4,12,24)     =         1.294929	      74.193955
	 D(6,3,2,25)      =         0.723627	      41.460773
	 D(6,3,2,26)      =        -1.364858	     -78.200577
	 D(6,3,4,12)      =         0.060944	       3.491829
	 D(6,7,8,9)       =        -0.009298	      -0.532741
	 D(6,7,8,16)      =        -3.136753	    -179.722706
	 D(6,11,10,9)     =         0.012040	       0.689867
	 D(6,11,10,14)    =        -3.131840	    -179.441216
	 D(7,6,11,10)     =        -0.029252	      -1.676026
	 D(7,6,11,13)     =         3.126627	     179.142545
	 D(7,8,9,10)      =        -0.008597	      -0.492558
	 D(7,8,9,15)      =        -3.138386	    -179.816299
	 D(8,7,6,11)      =         0.027876	       1.597200
	 D(8,9,10,11)     =         0.007241	       0.414863
	 D(8,9,10,14)     =        -3.132057	    -179.453662
	 D(8,9,15,27)     =         3.141593	     180.000000
	 D(9,8,7,17)      =         3.097830	     177.492594
	 D(9,10,11,13)    =         3.139309	     179.869135
	 D(10,9,8,16)     =         3.118810	     178.694624
	 D(10,9,15,27)    =         0.011888	       0.681149
	 D(11,6,7,17)     =        -3.079505	    -176.442642
	 D(11,10,9,15)    =         3.137032	     179.738713
	 D(12,4,5,20)     =        -0.792164	     -45.387633
	 D(12,4,5,21)     =         1.279929	      73.334518
	 D(13,11,10,14)   =        -0.004572	      -0.261949
	 D(14,10,9,15)    =        -0.002266	      -0.129813
	 D(15,9,8,16)     =        -0.010980	      -0.629117
	 D(16,8,7,17)     =        -0.029625	      -1.697371
	 D(18,1,2,25)     =         0.620232	      35.536695
	 D(18,1,2,26)     =         2.723738	     156.058672
	 D(18,1,5,20)     =        -0.612724	     -35.106492
	 D(18,1,5,21)     =        -2.713466	    -155.470171
	 D(19,1,2,25)     =        -1.479343	     -84.760085
	 D(19,1,2,26)     =         0.624163	      35.761892
	 D(19,1,5,20)     =         1.489621	      85.349014
	 D(19,1,5,21)     =        -0.611121	     -35.014665
	 R(7,12)          =         6.175900	       3.268146

	Current energy   :      -539.3779331485

	Generating empirical Hessian (Schlegel '84) for each fragment.
	Taking RFO optimization step.
	Going to follow RFO solution 1.
	Using RFO vector 1.
	Norm of target step-size    0.14927
	Projected energy change by RFO approximation:        -0.0027380731

	Back-transformation to cartesian coordinates...
	Could not converge backtransformation.
	Using first guess instead.

	--- Internal Coordinate Step in ANG or DEG, aJ/ANG or AJ/DEG ---
	 ---------------------------------------------------------------------------
	   Coordinate                Previous        Force       Change         New 
	   ----------                --------       ------       ------       ------
	    1 R(1,2)          =      1.539972     0.014612     0.003748     1.543720
	    2 R(1,5)          =      1.539312     0.013970     0.003629     1.542941
	    3 R(1,18)         =      1.102979     0.011108     0.002185     1.105165
	    4 R(1,19)         =      1.101343     0.009262     0.001795     1.103138
	    5 R(2,3)          =      1.521024     0.030099     0.006185     1.527209
	    6 R(2,25)         =      1.102719     0.008406     0.001667     1.104386
	    7 R(2,26)         =      1.107736     0.008310     0.001718     1.109453
	    8 R(3,4)          =      1.364353    -0.047585    -0.005731     1.358623
	    9 R(3,6)          =      1.473617     0.060929     0.011568     1.485185
	   10 R(4,5)          =      1.516101     0.032301     0.006680     1.522781
	   11 R(4,12)         =      1.499298     0.031776     0.006464     1.505762
	   12 R(5,20)         =      1.104075     0.008440     0.001747     1.105822
	   13 R(5,21)         =      1.108738     0.007422     0.001610     1.110348
	   14 R(6,7)          =      1.413460    -0.007441    -0.000969     1.412492
	   15 R(6,11)         =      1.413604    -0.021049    -0.003071     1.410533
	   16 R(7,8)          =      1.403147    -0.009474    -0.001399     1.401748
	   17 R(7,17)         =      1.093895    -0.003068    -0.000515     1.093380
	   18 R(8,9)          =      1.404361    -0.030669    -0.004363     1.399998
	   19 R(8,16)         =      1.094407    -0.001795    -0.000230     1.094177
	   20 R(9,10)         =      1.404974     0.010684     0.001613     1.406587
	   21 R(9,15)         =      1.380000    -0.083468    -0.009660     1.370340
	   22 R(10,11)        =      1.402281    -0.004835    -0.000589     1.401692
	   23 R(10,14)        =      1.094346     0.012391     0.002303     1.096649
	   24 R(11,13)        =      1.094470     0.000262     0.000070     1.094541
	   25 R(12,22)        =      1.099840     0.005282     0.001138     1.100978
	   26 R(12,23)        =      1.104194     0.010241     0.002090     1.106285
	   27 R(12,24)        =      1.104887     0.010189     0.002076     1.106963
	   28 R(15,27)        =      0.946999     0.151876     0.016644     0.963643
	   29 B(1,2,3)        =    102.566700     0.000013     0.325044   102.891744
	   30 B(1,2,25)       =    113.286730    -0.000025    -0.178412   113.108318
	   31 B(1,2,26)       =    110.909973     0.000008    -0.035311   110.874662
	   32 B(1,5,4)        =    103.098356    -0.000027     0.173389   103.271744
	   33 B(1,5,20)       =    113.233108    -0.000016    -0.149980   113.083128
	   34 B(1,5,21)       =    111.479279     0.000018    -0.034419   111.444860
	   35 B(2,1,5)        =    103.993068    -0.000085     0.037335   104.030403
	   36 B(2,1,18)       =    108.696781     0.000011    -0.048685   108.648095
	   37 B(2,1,19)       =    113.474479     0.000046     0.141936   113.616415
	   38 B(2,3,4)        =    110.468727     0.000025     0.041709   110.510436
	   39 B(2,3,6)        =    122.180296     0.000001    -0.143657   122.036639
	   40 B(3,2,25)       =    112.813790     0.000025     0.140946   112.954737
	   41 B(3,2,26)       =    110.149081    -0.000015    -0.072362   110.076719
	   42 B(3,4,5)        =    110.451137     0.000084     0.266055   110.717191
	   43 B(3,4,12)       =    128.512983    -0.000037     0.053900   128.566883
	   44 B(3,6,7)        =    121.426120     0.000069     0.363338   121.789458
	   45 B(3,6,11)       =    120.300495     0.000133     0.330308   120.630803
	   46 B(4,3,6)        =    127.233923    -0.000025     0.149430   127.383352
	   47 B(4,5,20)       =    112.800279     0.000041     0.171911   112.972190
	   48 B(4,5,21)       =    109.550255    -0.000005    -0.030425   109.519831
	   49 B(4,12,22)      =    112.108928     0.000044     0.201797   112.310725
	   50 B(4,12,23)      =    109.779573     0.000009     0.016670   109.796243
	   51 B(4,12,24)      =    111.281772     0.000009     0.061245   111.343017
	   52 B(5,1,18)       =    108.844371     0.000016    -0.048595   108.795776
	   53 B(5,1,19)       =    113.559042     0.000038     0.099115   113.658157
	   54 B(5,4,12)       =    120.801049    -0.000046    -0.258188   120.542861
	   55 B(6,7,8)        =    120.859024     0.000259     0.837840   121.696863
	   56 B(6,7,17)       =    119.183628    -0.000026     0.063770   119.247398
	   57 B(6,11,10)      =    120.897728     0.000074     0.269726   121.167453
	   58 B(6,11,13)      =    119.415378     0.000021     0.133309   119.548687
	   59 B(7,6,11)       =    118.246186    -0.000201    -0.690820   117.555367
	   60 B(7,8,9)        =    120.239106    -0.000123    -0.439833   119.799272
	   61 B(7,8,16)       =    119.706964     0.000257     1.125835   120.832799
	   62 B(8,7,17)       =    119.928351    -0.000233    -0.893086   119.035265
	   63 B(8,9,10)       =    119.513219     0.000004     0.026165   119.539384
	   64 B(8,9,15)       =    120.249566    -0.000821    -2.469316   117.780250
	   65 B(9,8,16)       =    120.048967    -0.000134    -0.685354   119.363612
	   66 B(9,10,11)      =    120.222516    -0.000012    -0.003319   120.219197
	   67 B(9,10,14)      =    120.037222    -0.000031    -0.170572   119.866651
	   68 B(9,15,27)      =    109.471244    -0.000583    -2.705174   106.766069
	   69 B(10,9,15)      =    120.233743     0.000817     2.444313   122.678056
	   70 B(10,11,13)     =    119.681864    -0.000095    -0.402025   119.279838
	   71 B(11,10,14)     =    119.740132     0.000043     0.173841   119.913973
	   72 B(18,1,19)      =    108.096378    -0.000027    -0.183352   107.913025
	   73 B(20,5,21)      =    106.725958    -0.000010    -0.120616   106.605342
	   74 B(22,12,23)     =    108.455036    -0.000036    -0.199461   108.255576
	   75 B(22,12,24)     =    108.342411    -0.000020    -0.048038   108.294374
	   76 B(23,12,24)     =    106.683530    -0.000010    -0.052708   106.630822
	   77 B(25,2,26)      =    107.138345    -0.000006    -0.166598   106.971747
	   78 D(1,2,3,4)      =    -19.987768     0.000000     0.796470   -19.191298
	   79 D(1,2,3,6)      =    163.681328    -0.000003    -0.048340   163.632987
	   80 D(1,5,4,3)      =     17.235016     0.000001    -0.810366    16.424650
	   81 D(1,5,4,12)     =   -167.877438     0.000003    -0.083684  -167.961123
	   82 D(2,1,5,4)      =    -28.636594     0.000009     1.358650   -27.277943
	   83 D(2,1,5,20)     =   -150.836039     0.000004     1.117998  -149.718042
	   84 D(2,1,5,21)     =     88.800282     0.000007     1.404801    90.205083
	   85 D(2,3,4,5)      =      1.778925    -0.000001    -0.001775     1.777149
	   86 D(2,3,4,12)     =   -172.607364    -0.000003    -0.783508  -173.390872
	   87 D(2,3,6,7)      =   -141.090867     0.000001     0.924451  -140.166416
	   88 D(2,3,6,11)     =     36.978697     0.000002     1.014955    37.993652
	   89 D(3,2,1,5)      =     29.470838    -0.000008    -1.312437    28.158402
	   90 D(3,2,1,18)     =    -86.362554    -0.000003    -1.253922   -87.616477
	   91 D(3,2,1,19)     =    153.340666    -0.000004    -1.078979   152.261687
	   92 D(3,4,5,20)     =    139.724821    -0.000002    -0.785991   138.938829
	   93 D(3,4,5,21)     =   -101.553028    -0.000000    -0.849002  -102.402030
	   94 D(3,4,12,22)    =      9.586503     0.000005     0.971162    10.557665
	   95 D(3,4,12,23)    =    130.196980     0.000002     0.863198   131.060178
	   96 D(3,4,12,24)    =   -111.931530     0.000002     0.846123  -111.085407
	   97 D(3,6,7,8)      =    179.705195     0.000002     0.085425   179.790620
	   98 D(3,6,7,17)     =      1.665353     0.000000    -0.212497     1.452856
	   99 D(3,6,11,10)    =   -179.806114    -0.000001    -0.111953  -179.918067
	  100 D(3,6,11,13)    =      1.012458    -0.000002    -0.195653     0.816805
	  101 D(4,3,2,25)     =   -142.208323     0.000002     0.728488  -141.479834
	  102 D(4,3,2,26)     =     98.130327     0.000002     0.897225    99.027552
	  103 D(4,3,6,7)      =     43.227732    -0.000004    -0.064552    43.163179
	  104 D(4,3,6,11)     =   -138.702704    -0.000002     0.025952  -138.676752
	  105 D(4,5,1,18)     =     87.092954     0.000004     1.300091    88.393044
	  106 D(4,5,1,19)     =   -152.451540     0.000005     1.097305  -151.354235
	  107 D(5,1,2,25)     =    151.370088    -0.000002    -1.026683   150.343405
	  108 D(5,1,2,26)     =    -88.107935    -0.000006    -1.390673   -89.498608
	  109 D(5,4,3,6)      =    177.878117     0.000002     0.885776   178.763894
	  110 D(5,4,12,22)    =   -164.288012     0.000001     0.094446  -164.193566
	  111 D(5,4,12,23)    =    -43.677535    -0.000001    -0.013518   -43.691053
	  112 D(5,4,12,24)    =     74.193955    -0.000002    -0.030593    74.163361
	  113 D(6,3,2,25)     =     41.460773    -0.000001    -0.116323    41.344451
	  114 D(6,3,2,26)     =    -78.200577    -0.000001     0.052414   -78.148163
	  115 D(6,3,4,12)     =      3.491829     0.000000     0.104043     3.595873
	  116 D(6,7,8,9)      =     -0.532741     0.000000     0.048020    -0.484721
	  117 D(6,7,8,16)     =   -179.722706    -0.000000    -0.001388  -179.724094
	  118 D(6,11,10,9)    =      0.689867    -0.000000     0.020854     0.710722
	  119 D(6,11,10,14)   =   -179.441216    -0.000000    -0.002307  -179.443523
	  120 D(7,6,11,10)    =     -1.676026     0.000001    -0.006043    -1.682069
	  121 D(7,6,11,13)    =    179.142545     0.000000    -0.089743   179.052803
	  122 D(7,8,9,10)     =     -0.492558    -0.000000    -0.052677    -0.545235
	  123 D(7,8,9,15)     =   -179.816299    -0.000002    -0.190843  -180.007142
	  124 D(8,7,6,11)     =      1.597200    -0.000001    -0.020824     1.576376
	  125 D(8,9,10,11)    =      0.414863     0.000000     0.019828     0.434691
	  126 D(8,9,10,14)    =   -179.453662     0.000001     0.042525  -179.411137
	  127 D(8,9,15,27)    =    180.000000    -0.000000    -0.142839   179.857161
	  128 D(9,8,7,17)     =    177.492594     0.000003     0.363878   177.856472
	  129 D(9,10,11,13)   =    179.869135     0.000001     0.108657   179.977792
	  130 D(10,9,8,16)    =    178.694624     0.000001     0.010737   178.705361
	  131 D(10,9,15,27)   =      0.681149    -0.000001    -0.267804     0.413345
	  132 D(11,6,7,17)    =   -176.442642    -0.000002    -0.318746  -176.761388
	  133 D(11,10,9,15)   =    179.738713    -0.000000     0.130381   179.869093
	  134 D(12,4,5,20)    =    -45.387633    -0.000001    -0.059310   -45.446943
	  135 D(12,4,5,21)    =     73.334518     0.000002    -0.122321    73.212198
	  136 D(13,11,10,14)  =     -0.261949     0.000001     0.085495    -0.176453
	  137 D(14,10,9,15)   =     -0.129813     0.000000     0.153078     0.023265
	  138 D(15,9,8,16)    =     -0.629117    -0.000001    -0.127429    -0.756546
	  139 D(16,8,7,17)    =     -1.697371     0.000003     0.314470    -1.382901
	  140 D(18,1,2,25)    =     35.536695     0.000002    -0.968168    34.568527
	  141 D(18,1,2,26)    =    156.058672    -0.000002    -1.332159   154.726513
	  142 D(18,1,5,20)    =    -35.106492    -0.000001     1.059438   -34.047054
	  143 D(18,1,5,21)    =   -155.470171     0.000002     1.346242  -154.123929
	  144 D(19,1,2,25)    =    -84.760085     0.000002    -0.793225   -85.553310
	  145 D(19,1,2,26)    =     35.761892    -0.000003    -1.157215    34.604677
	  146 D(19,1,5,20)    =     85.349014    -0.000001     0.856653    86.205667
	  147 D(19,1,5,21)    =    -35.014665     0.000002     1.143456   -33.871208
	  148 R(7,12)         =      3.268146     0.008611     0.019083     3.287229
	 ---------------------------------------------------------------------------
	Successfully symmetrized geometry.

  ==> Convergence Check <==

  Measures of convergence in internal coordinates in au.
  Criteria marked as inactive (o), active & met (*), and active & unmet ( ).
  --------------------------------------------------------------------------------------------- ~
   Step     Total Energy     Delta E     MAX Force     RMS Force      MAX Disp      RMS Disp    ~
  --------------------------------------------------------------------------------------------- ~
    Convergence Criteria    1.00e-06 *    3.00e-04 *             o    1.20e-03 *             o  ~
  --------------------------------------------------------------------------------------------- ~
      1    -539.37793315   -5.39e+02      1.84e-02      2.56e-03 o    4.72e-02      1.23e-02 o  ~
  ---------------------------------------------------------------------------------------------

	Writing optimization data to binary file.
	Structure for next step:
	Cartesian Geometry (in Angstrom)
	    C     3.3587702731   1.3895082038   0.5270210577
	    C     1.8431743142   1.6654104980   0.6266040546
	    C     1.2290374860   0.4439254201  -0.0539674955
	    C     2.1494331077  -0.1782785506  -0.8360095229
	    C     3.4984749000   0.5216720902  -0.7410520088
	    C    -0.2034472011   0.0877470576   0.1100441450
	    C    -0.6249577215  -1.2524377392   0.2562149101
	    C    -1.9771053440  -1.5860732844   0.4152164708
	    C    -2.9448098206  -0.5747172083   0.4416741408
	    C    -2.5471353829   0.7689517119   0.3196268323
	    C    -1.1922187689   1.0922794487   0.1634193127
	    C     1.9497881968  -1.3293562480  -1.7860000513
	    H    -0.8999636703   2.1428914717   0.0695003355
	    H    -3.2997030552   1.5660687793   0.3493682833
	    O    -4.2540695130  -0.9474569766   0.5989513665
	    H    -2.2874836047  -2.6288107286   0.5317768873
	    H     0.1237031870  -2.0491263525   0.2727642194
	    H     3.6674279261   0.7914160576   1.4036081010
	    H     3.9742089741   2.3047952771   0.5070444686
	    H     4.3483721518  -0.1840933116  -0.6919436241
	    H     3.6567114407   1.1464917733  -1.6451722633
	    H     0.8848792542  -1.5524704575  -1.9543470838
	    H     2.4131202000  -1.0938536684  -2.7625898074
	    H     2.4428731384  -2.2482791198  -1.4147663017
	    H     1.4945143156   1.8002204266   1.6658014031
	    H     1.5718476539   2.5870973987   0.0718410284
	    H    -4.7758830943  -0.1373239609   0.5970604951
			--------------------------
			 OPTKING Finished Execution 
			--------------------------

    Structure for next step:
    Molecular point group: c1
    Full point group: C1

    Geometry (in Angstrom), charge = 0, multiplicity = 1:

    C            3.359669849676     1.390121408212     0.527766883631
    C            1.844073884781     1.666023703531     0.627349880880
    C            1.229937054193     0.444538620824    -0.053221671886
    C            2.150332679468    -0.177665352319    -0.835263702356
    C            3.499374477138     0.522285291182    -0.740306187826
    C           -0.202547638578     0.088360256927     0.110789969270
    C           -0.624058160625    -1.251824545135     0.256960734995
    C           -1.976205788442    -1.585460091706     0.415962296284
    C           -2.943910268843    -0.574104011622     0.442419966354
    C           -2.546235829557     0.769564913887     0.320372657436
    C           -1.191319210207     1.092892651928     0.164165137231
    C            1.950687767819    -1.328743054298    -1.785254234461
    H           -0.899064110465     2.143504679045     0.070246159665
    H           -3.298803504809     1.566681984401     0.350114108513
    O           -4.253169966361    -0.946843781397     0.599697192675
    H           -2.286584050396    -2.628197539960     0.532522713297
    H            0.124602750806    -2.048513161594     0.273510044378
    H            3.668327503842     0.792029259672     1.404353930341
    H            3.975108553041     2.305408485109     0.507790294405
    H            4.349271732219    -0.183480113399    -0.691197802988
    H            3.657611018386     1.147104976743    -1.644426445875
    H            0.885778820976    -1.551857264623    -1.953601267574
    H            2.414019772810    -1.093240473729    -2.761843994390
    H            2.443772711373    -2.247665929672    -1.414020483350
    H            1.495413884821     1.800833632583     1.666547233533
    H            1.572747223451     2.587710607815     0.072586852564
    H           -4.774983549771    -0.136710762454     0.597806321293


Scratch directory: /scratch1/maxbuskirk/
gradient() will perform analytic gradient computation.

*** tstart() called on skylm004.palmetto.clemson.edu
*** at Wed Feb  9 20:31:22 2022

   => Loading Basis Set <=

    Name: CC-PVDZ
    Role: ORBITAL
    Keyword: BASIS
    atoms 1-12         entry C          line   138 file /home/maxbuskirk/.conda/envs/psifour/share/psi4/basis/cc-pvdz.gbs 
    atoms 13-14, 16-27 entry H          line    22 file /home/maxbuskirk/.conda/envs/psifour/share/psi4/basis/cc-pvdz.gbs 
    atoms 15           entry O          line   198 file /home/maxbuskirk/.conda/envs/psifour/share/psi4/basis/cc-pvdz.gbs 


         ---------------------------------------------------------
                                   SCF
               by Justin Turney, Rob Parrish, Andy Simmonett
                          and Daniel G. A. Smith
                              RHF Reference
                        1 Threads,  59127 MiB Core
         ---------------------------------------------------------

  ==> Geometry <==

    Molecular point group: c1
    Full point group: C1

    Geometry (in Angstrom), charge = 0, multiplicity = 1:

       Center              X                  Y                   Z               Mass       
    ------------   -----------------  -----------------  -----------------  -----------------
         C            3.359669849676     1.390121408212     0.527766883631    12.000000000000
         C            1.844073884781     1.666023703531     0.627349880880    12.000000000000
         C            1.229937054193     0.444538620824    -0.053221671886    12.000000000000
         C            2.150332679468    -0.177665352319    -0.835263702356    12.000000000000
         C            3.499374477138     0.522285291182    -0.740306187826    12.000000000000
         C           -0.202547638578     0.088360256927     0.110789969270    12.000000000000
         C           -0.624058160625    -1.251824545135     0.256960734995    12.000000000000
         C           -1.976205788442    -1.585460091706     0.415962296284    12.000000000000
         C           -2.943910268843    -0.574104011622     0.442419966354    12.000000000000
         C           -2.546235829557     0.769564913887     0.320372657436    12.000000000000
         C           -1.191319210207     1.092892651928     0.164165137231    12.000000000000
         C            1.950687767819    -1.328743054298    -1.785254234461    12.000000000000
         H           -0.899064110465     2.143504679045     0.070246159665     1.007825032230
         H           -3.298803504809     1.566681984401     0.350114108513     1.007825032230
         O           -4.253169966361    -0.946843781397     0.599697192675    15.994914619570
         H           -2.286584050396    -2.628197539960     0.532522713297     1.007825032230
         H            0.124602750806    -2.048513161594     0.273510044378     1.007825032230
         H            3.668327503842     0.792029259672     1.404353930341     1.007825032230
         H            3.975108553041     2.305408485109     0.507790294405     1.007825032230
         H            4.349271732219    -0.183480113399    -0.691197802988     1.007825032230
         H            3.657611018386     1.147104976743    -1.644426445875     1.007825032230
         H            0.885778820976    -1.551857264623    -1.953601267574     1.007825032230
         H            2.414019772810    -1.093240473729    -2.761843994390     1.007825032230
         H            2.443772711373    -2.247665929672    -1.414020483350     1.007825032230
         H            1.495413884821     1.800833632583     1.666547233533     1.007825032230
         H            1.572747223451     2.587710607815     0.072586852564     1.007825032230
         H           -4.774983549771    -0.136710762454     0.597806321293     1.007825032230

  Running in c1 symmetry.

  Rotational constants: A =      0.06629  B =      0.01402  C =      0.01226 [cm^-1]
  Rotational constants: A =   1987.21116  B =    420.32675  C =    367.59494 [MHz]
  Nuclear repulsion =  743.567967514005886

  Charge       = 0
  Multiplicity = 1
  Electrons    = 94
  Nalpha       = 47
  Nbeta        = 47

  ==> Algorithm <==

  SCF Algorithm Type is DF.
  DIIS enabled.
  MOM disabled.
  Fractional occupation disabled.
  Guess Type is READ.
  Energy threshold   = 1.00e-10
  Density threshold  = 1.00e-10
  Integral threshold = 1.00e-12

  ==> Primary Basis <==

  Basis Set: CC-PVDZ
    Blend: CC-PVDZ
    Number of shells: 120
    Number of basis functions: 252
    Number of Cartesian functions: 265
    Spherical Harmonics?: true
    Max angular momentum: 2

   => Loading Basis Set <=

    Name: (CC-PVDZ AUX)
    Role: JKFIT
    Keyword: DF_BASIS_SCF
    atoms 1-12         entry C          line   121 file /home/maxbuskirk/.conda/envs/psifour/share/psi4/basis/cc-pvdz-jkfit.gbs 
    atoms 13-14, 16-27 entry H          line    51 file /home/maxbuskirk/.conda/envs/psifour/share/psi4/basis/cc-pvdz-jkfit.gbs 
    atoms 15           entry O          line   221 file /home/maxbuskirk/.conda/envs/psifour/share/psi4/basis/cc-pvdz-jkfit.gbs 

   => Loading Basis Set <=

    Name: CC-PVDZ
    Role: ORBITAL
    Keyword: BASIS
    atoms 1-12         entry C          line   138 file /home/maxbuskirk/.conda/envs/psifour/share/psi4/basis/cc-pvdz.gbs 
    atoms 13-14, 16-27 entry H          line    22 file /home/maxbuskirk/.conda/envs/psifour/share/psi4/basis/cc-pvdz.gbs 
    atoms 15           entry O          line   198 file /home/maxbuskirk/.conda/envs/psifour/share/psi4/basis/cc-pvdz.gbs 

  Reading orbitals from file /scratch1/maxbuskirk/pOH.mol.2671588.180.npy, no projection.

  ==> Integral Setup <==

  DFHelper Memory: AOs need 0.529 GiB; user supplied 43.306 GiB. Using in-core AOs.

  ==> MemDFJK: Density-Fitted J/K Matrices <==

    J tasked:                   Yes
    K tasked:                   Yes
    wK tasked:                   No
    OpenMP threads:               1
    Memory [MiB]:             44345
    Algorithm:                 Core
    Schwarz Cutoff:           1E-12
    Mask sparsity (%):      12.9000
    Fitting Condition:        1E-10

   => Auxiliary Basis Set <=

  Basis Set: (CC-PVDZ AUX)
    Blend: CC-PVDZ-JKFIT
    Number of shells: 438
    Number of basis functions: 1232
    Number of Cartesian functions: 1403
    Spherical Harmonics?: true
    Max angular momentum: 3

  Minimum eigenvalue in the overlap matrix is 3.3399130112E-04.
  Reciprocal condition number of the overlap matrix is 5.1996749022E-05.
    Using symmetric orthogonalization.

  ==> Pre-Iterations <==

  SCF Guess: Orbitals guess was supplied from a previous computation.

   -------------------------------------------------------
    Irrep   Nso     Nmo     Nalpha   Nbeta   Ndocc  Nsocc
   -------------------------------------------------------
     A        252     252      47      47      47       0
   -------------------------------------------------------
    Total     252     252      47      47      47       0
   -------------------------------------------------------

  ==> Iterations <==

                           Total Energy        Delta E     RMS |[F,P]|

   @DF-RHF iter   0:  -537.43886027229689   -5.37439e+02   3.78857e-04 
   @DF-RHF iter   1:  -537.46192901651818   -2.30687e-02   4.76031e-05 DIIS
   @DF-RHF iter   2:  -537.46204142917668   -1.12413e-04   1.95364e-05 DIIS
   @DF-RHF iter   3:  -537.46205633213697   -1.49030e-05   9.13855e-06 DIIS
   @DF-RHF iter   4:  -537.46206062594422   -4.29381e-06   2.85339e-06 DIIS
   @DF-RHF iter   5:  -537.46206113269272   -5.06749e-07   1.06075e-06 DIIS
   @DF-RHF iter   6:  -537.46206126449431   -1.31802e-07   5.96039e-07 DIIS
   @DF-RHF iter   7:  -537.46206132281532   -5.83210e-08   2.61126e-07 DIIS
   @DF-RHF iter   8:  -537.46206133527050   -1.24552e-08   9.40597e-08 DIIS
   @DF-RHF iter   9:  -537.46206133675219   -1.48168e-09   2.80307e-08 DIIS
   @DF-RHF iter  10:  -537.46206133684484   -9.26548e-11   1.15853e-08 DIIS
   @DF-RHF iter  11:  -537.46206133685644   -1.15961e-11   3.75614e-09 DIIS
   @DF-RHF iter  12:  -537.46206133685575    6.82121e-13   1.55133e-09 DIIS
   @DF-RHF iter  13:  -537.46206133685803   -2.27374e-12   7.27504e-10 DIIS
   @DF-RHF iter  14:  -537.46206133685837   -3.41061e-13   2.95018e-10 DIIS
   @DF-RHF iter  15:  -537.46206133685860   -2.27374e-13   1.14769e-10 DIIS
   @DF-RHF iter  16:  -537.46206133685939   -7.95808e-13   5.07700e-11 DIIS
  Energy and wave function converged.


  ==> Post-Iterations <==

    Orbital Energies [Eh]
    ---------------------

    Doubly Occupied:                                                      

       1A    -20.590051     2A    -11.305940     3A    -11.248190  
       4A    -11.245635     5A    -11.241625     6A    -11.240621  
       7A    -11.234626     8A    -11.232844     9A    -11.229674  
      10A    -11.229527    11A    -11.228817    12A    -11.228575  
      13A    -11.226179    14A     -1.403384    15A     -1.155217  
      16A     -1.125077    17A     -1.022233    18A     -1.016481  
      19A     -1.002227    20A     -0.940090    21A     -0.898408  
      22A     -0.843415    23A     -0.820040    24A     -0.778864  
      25A     -0.725696    26A     -0.711549    27A     -0.655259  
      28A     -0.642459    29A     -0.634940    30A     -0.615662  
      31A     -0.585568    32A     -0.584971    33A     -0.580311  
      34A     -0.570729    35A     -0.562512    36A     -0.550741  
      37A     -0.538717    38A     -0.505170    39A     -0.491950  
      40A     -0.488029    41A     -0.476046    42A     -0.474321  
      43A     -0.462319    44A     -0.458406    45A     -0.351157  
      46A     -0.338205    47A     -0.281205  

    Virtual:                                                              

      48A      0.126488    49A      0.129448    50A      0.177374  
      51A      0.179918    52A      0.199065    53A      0.200946  
      54A      0.205904    55A      0.219578    56A      0.232832  
      57A      0.243775    58A      0.259625    59A      0.268417  
      60A      0.271221    61A      0.286591    62A      0.292245  
      63A      0.302155    64A      0.319251    65A      0.342078  
      66A      0.365325    67A      0.390080    68A      0.395630  
      69A      0.409529    70A      0.419291    71A      0.433064  
      72A      0.443175    73A      0.475212    74A      0.505135  
      75A      0.523078    76A      0.540631    77A      0.581368  
      78A      0.597306    79A      0.630601    80A      0.636143  
      81A      0.643388    82A      0.660715    83A      0.669475  
      84A      0.675096    85A      0.691335    86A      0.698091  
      87A      0.708605    88A      0.718883    89A      0.727943  
      90A      0.739206    91A      0.744480    92A      0.748622  
      93A      0.754143    94A      0.772008    95A      0.788888  
      96A      0.803854    97A      0.815390    98A      0.828104  
      99A      0.835552   100A      0.839815   101A      0.853984  
     102A      0.858785   103A      0.870584   104A      0.878644  
     105A      0.882406   106A      0.886228   107A      0.887950  
     108A      0.897154   109A      0.898929   110A      0.912149  
     111A      0.917778   112A      0.927508   113A      0.931430  
     114A      0.932277   115A      0.942142   116A      0.948112  
     117A      0.956326   118A      0.963907   119A      0.985924  
     120A      0.995767   121A      1.013497   122A      1.023719  
     123A      1.037888   124A      1.064064   125A      1.115084  
     126A      1.129361   127A      1.137159   128A      1.153453  
     129A      1.176154   130A      1.187315   131A      1.210304  
     132A      1.239230   133A      1.262842   134A      1.268135  
     135A      1.278108   136A      1.285940   137A      1.300061  
     138A      1.312602   139A      1.321479   140A      1.346273  
     141A      1.356517   142A      1.365951   143A      1.383128  
     144A      1.396598   145A      1.437724   146A      1.462385  
     147A      1.479883   148A      1.491901   149A      1.498084  
     150A      1.516327   151A      1.549963   152A      1.562797  
     153A      1.578017   154A      1.594066   155A      1.606382  
     156A      1.626712   157A      1.651518   158A      1.685567  
     159A      1.705144   160A      1.728840   161A      1.745024  
     162A      1.761507   163A      1.774593   164A      1.792743  
     165A      1.806122   166A      1.810509   167A      1.828807  
     168A      1.842481   169A      1.853127   170A      1.868636  
     171A      1.876856   172A      1.885388   173A      1.892030  
     174A      1.902567   175A      1.910313   176A      1.915271  
     177A      1.924625   178A      1.934397   179A      1.935144  
     180A      1.944063   181A      1.967499   182A      1.970606  
     183A      1.985128   184A      1.995298   185A      2.019022  
     186A      2.023975   187A      2.029280   188A      2.034953  
     189A      2.050445   190A      2.060892   191A      2.066021  
     192A      2.076027   193A      2.090434   194A      2.100279  
     195A      2.113835   196A      2.116177   197A      2.130354  
     198A      2.140747   199A      2.156085   200A      2.183866  
     201A      2.195643   202A      2.215770   203A      2.242701  
     204A      2.258143   205A      2.265543   206A      2.273582  
     207A      2.294527   208A      2.310335   209A      2.338105  
     210A      2.352316   211A      2.375729   212A      2.394748  
     213A      2.403490   214A      2.424610   215A      2.429900  
     216A      2.449948   217A      2.456308   218A      2.464830  
     219A      2.499091   220A      2.520353   221A      2.525308  
     222A      2.534936   223A      2.548848   224A      2.617942  
     225A      2.625233   226A      2.659551   227A      2.674899  
     228A      2.726279   229A      2.728639   230A      2.753853  
     231A      2.765959   232A      2.775440   233A      2.796926  
     234A      2.819456   235A      2.825815   236A      2.864467  
     237A      2.912317   238A      2.939236   239A      2.949311  
     240A      2.985561   241A      3.014746   242A      3.023006  
     243A      3.058335   244A      3.121269   245A      3.192838  
     246A      3.250777   247A      3.263751   248A      3.322948  
     249A      3.560316   250A      3.689975   251A      3.887045  
     252A      4.182175  

[...]
	   66 B(9,10,11)      =    120.077975    -0.000000    -0.001255   120.076720
	   67 B(9,10,14)      =    120.013721    -0.000000     0.003878   120.017600
	   68 B(9,15,27)      =    107.720478    -0.000001    -0.005780   107.714699
	   69 B(10,9,15)      =    123.012717    -0.000000    -0.002456   123.010261
	   70 B(10,11,13)     =    118.892210    -0.000000    -0.000220   118.891990
	   71 B(11,10,14)     =    119.908170     0.000001    -0.002625   119.905545
	   72 B(18,1,19)      =    107.762493     0.000000     0.000055   107.762548
	   73 B(20,5,21)      =    106.620196     0.000000    -0.001709   106.618488
	   74 B(22,12,23)     =    108.311091     0.000000    -0.001458   108.309633
	   75 B(22,12,24)     =    108.332976     0.000000     0.006394   108.339369
	   76 B(23,12,24)     =    106.757548    -0.000000    -0.003131   106.754417
	   77 B(25,2,26)      =    106.934382     0.000000    -0.001749   106.932633
	   78 D(1,2,3,4)      =    -18.255857     0.000000     0.031736   -18.224121
	   79 D(1,2,3,6)      =    164.612699     0.000000    -0.000583   164.612116
	   80 D(1,5,4,3)      =     15.655036     0.000000     0.018722    15.673758
	   81 D(1,5,4,12)     =   -168.477114     0.000000     0.012015  -168.465098
	   82 D(2,1,5,4)      =    -25.991889    -0.000000     0.001497   -25.990392
	   83 D(2,1,5,20)     =   -148.004350     0.000000     0.005359  -147.998991
	   84 D(2,1,5,21)     =     91.810853     0.000000     0.006358    91.817211
	   85 D(2,3,4,5)      =      1.673686    -0.000000    -0.032075     1.641611
	   86 D(2,3,4,12)     =   -173.750548    -0.000000    -0.024576  -173.775124
	   87 D(2,3,6,7)      =   -139.139841     0.000000     0.141596  -138.998244
	   88 D(2,3,6,11)     =     38.865959     0.000000     0.135733    39.001692
	   89 D(3,2,1,5)      =     26.803256    -0.000000    -0.018884    26.784372
	   90 D(3,2,1,18)     =    -89.468533    -0.000000    -0.023955   -89.492489
	   91 D(3,2,1,19)     =    150.631412    -0.000000    -0.023716   150.607696
	   92 D(3,4,5,20)     =    137.848226     0.000000     0.015949   137.864175
	   93 D(3,4,5,21)     =   -103.585496     0.000000     0.015044  -103.570452
	   94 D(3,4,12,22)    =     10.202654    -0.000000    -0.192542    10.010112
	   95 D(3,4,12,23)    =    130.749210    -0.000000    -0.196939   130.552271
	   96 D(3,4,12,24)    =   -111.311822    -0.000000    -0.203200  -111.515022
	   97 D(3,6,7,8)      =    179.510283    -0.000000    -0.004907   179.505375
	   98 D(3,6,7,17)     =      0.946030    -0.000000    -0.018662     0.927368
	   99 D(3,6,11,10)    =   -179.649532     0.000000     0.003753  -179.645779
	  100 D(3,6,11,13)    =      1.025552     0.000000     0.010090     1.035642
	  101 D(4,3,2,25)     =   -140.276376     0.000000     0.028941  -140.247435
	  102 D(4,3,2,26)     =    100.369007     0.000000     0.033045   100.402052
	  103 D(4,3,6,7)      =     44.245789     0.000000     0.103201    44.348990
	  104 D(4,3,6,11)     =   -137.748411     0.000000     0.097337  -137.651074
	  105 D(4,5,1,18)     =     90.182613    -0.000000     0.006719    90.189332
	  106 D(4,5,1,19)     =   -149.786946    -0.000000     0.005742  -149.781204
	  107 D(5,1,2,25)     =    148.599007     0.000000    -0.014518   148.584489
	  108 D(5,1,2,26)     =    -91.176519     0.000000    -0.013917   -91.190435
	  109 D(5,4,3,6)      =    178.589761    -0.000000     0.002787   178.592547
	  110 D(5,4,12,22)    =   -164.845689    -0.000000    -0.184495  -165.030184
	  111 D(5,4,12,23)    =    -44.299133    -0.000000    -0.188892   -44.488025
	  112 D(5,4,12,24)    =     73.639835    -0.000000    -0.195153    73.444682
	  113 D(6,3,2,25)     =     42.592181     0.000000    -0.003379    42.588802
	  114 D(6,3,2,26)     =    -76.762437     0.000000     0.000726   -76.761711
	  115 D(6,3,4,12)     =      3.165527    -0.000000     0.010285     3.175813
	  116 D(6,7,8,9)      =     -0.446564     0.000000     0.001259    -0.445305
	  117 D(6,7,8,16)     =   -179.678133     0.000000    -0.003744  -179.681877
	  118 D(6,11,10,9)    =      0.681255    -0.000000     0.001845     0.683100
	  119 D(6,11,10,14)   =   -179.451997    -0.000000     0.001517  -179.450479
	  120 D(7,6,11,10)    =     -1.561241    -0.000000    -0.002232    -1.563473
	  121 D(7,6,11,13)    =    179.113844    -0.000000     0.004105   179.117948
	  122 D(7,8,9,10)     =     -0.484359    -0.000000    -0.001609    -0.485969
	  123 D(7,8,9,15)     =   -179.992467     0.000000     0.000829  -179.991638
	  124 D(8,7,6,11)     =      1.446236     0.000000     0.000694     1.446930
	  125 D(8,9,10,11)    =      0.370026     0.000000     0.000089     0.370115
	  126 D(8,9,10,14)    =   -179.496581     0.000000     0.000426  -179.496155
	  127 D(8,9,15,27)    =    179.553917    -0.000000     0.005236   179.559153
	  128 D(9,8,7,17)     =    178.121397     0.000000     0.014660   178.136057
	  129 D(9,10,11,13)   =   -179.988485    -0.000000    -0.004418  -179.992903
	  130 D(10,9,8,16)    =    178.765571    -0.000000     0.003192   178.768763
	  131 D(10,9,15,27)   =      0.064845     0.000000     0.007729     0.072574
	  132 D(11,6,7,17)    =   -177.118016    -0.000000    -0.013061  -177.131077
	  133 D(11,10,9,15)   =    179.849993    -0.000000    -0.002487   179.847506
	  134 D(12,4,5,20)    =    -46.283923    -0.000000     0.009243   -46.274681
	  135 D(12,4,5,21)    =     72.282355     0.000000     0.008337    72.290691
	  136 D(13,11,10,14)  =     -0.121736    -0.000000    -0.004746    -0.126482
	  137 D(14,10,9,15)   =     -0.016614    -0.000000    -0.002150    -0.018764
	  138 D(15,9,8,16)    =     -0.742537     0.000000     0.005630    -0.736907
	  139 D(16,8,7,17)    =     -1.110172     0.000000     0.009658    -1.100514
	  140 D(18,1,2,25)    =     32.327218     0.000000    -0.019590    32.307628
	  141 D(18,1,2,26)    =    152.551692     0.000000    -0.018988   152.532704
	  142 D(18,1,5,20)    =    -31.829848     0.000000     0.010580   -31.819268
	  143 D(18,1,5,21)    =   -152.014645    -0.000000     0.011579  -152.003066
	  144 D(19,1,2,25)    =    -87.572836     0.000000    -0.019350   -87.592187
	  145 D(19,1,2,26)    =     32.651637     0.000000    -0.018748    32.632889
	  146 D(19,1,5,20)    =     88.200593     0.000000     0.009603    88.210196
	  147 D(19,1,5,21)    =    -31.984204     0.000000     0.010603   -31.973602
	  148 R(7,12)         =      3.307107    -0.000023     0.000885     3.307992
	 ---------------------------------------------------------------------------
	Successfully symmetrized geometry.

  ==> Convergence Check <==

  Measures of convergence in internal coordinates in au.
  Criteria marked as inactive (o), active & met (*), and active & unmet ( ).
  ---------------------------------------------------------------------------------------------
   Step     Total Energy     Delta E     MAX Force     RMS Force      MAX Disp      RMS Disp   
  ---------------------------------------------------------------------------------------------
    Convergence Criteria    1.00e-06 *    3.00e-04 *             o    1.20e-03 *             o
  ---------------------------------------------------------------------------------------------
      6    -539.37949289   -4.44e-07 *    6.14e-05 *    9.94e-06 o    3.55e-03      7.92e-04 o  ~
  ---------------------------------------------------------------------------------------------


  **** Optimization is complete! (in 6 steps) ****

  ==> Optimization Summary <==

  Measures of convergence in internal coordinates in au.
  --------------------------------------------------------------------------------------------------------------- ~
   Step         Total Energy             Delta E       MAX Force       RMS Force        MAX Disp        RMS Disp  ~
  --------------------------------------------------------------------------------------------------------------- ~
      1    -539.377933148454   -539.377933148454      0.01843443      0.00255857      0.04721420      0.01226552  ~
      2    -539.379369164581     -0.001436016128      0.00374772      0.00054604      0.02173650      0.00774027  ~
      3    -539.379476884825     -0.000107720244      0.00105542      0.00016351      0.01250745      0.00428804  ~
      4    -539.379490745913     -0.000013861088      0.00035295      0.00005538      0.00586843      0.00198485  ~
      5    -539.379492450805     -0.000001704892      0.00012258      0.00001846      0.00394499      0.00084255  ~
      6    -539.379492894735     -0.000000443929      0.00006141      0.00000994      0.00354652      0.00079215  ~
  --------------------------------------------------------------------------------------------------------------- ~

	Writing optimization data to binary file.
	Final energy is   -539.3794928947347
	Final (previous) structure:
	Cartesian Geometry (in Angstrom)
	    C     3.3646154118   1.3764289577   0.5298706205
	    C     1.8471330235   1.6431350117   0.6415986553
	    C     1.2348033062   0.4283841738  -0.0509185718
	    C     2.1540426959  -0.1944843569  -0.8312289878
	    C     3.5069218489   0.4955733240  -0.7306554434
	    C    -0.2020445573   0.0847443415   0.1069715389
	    C    -0.6350808905  -1.2508452440   0.2672645841
	    C    -1.9892059700  -1.5671794329   0.4256546559
	    C    -2.9528413059  -0.5443058387   0.4370918649
	    C    -2.5427100715   0.7912168349   0.2989332930
	    C    -1.1819086948   1.0965178182   0.1431829636
	    C     1.9573417401  -1.3440883003  -1.7839813944
	    H    -0.8836732979   2.1446025460   0.0372688904
	    H    -3.2857527060   1.5977197836   0.3148163423
	    O    -4.2627688561  -0.9097929023   0.5952998744
	    H    -2.3179765910  -2.6024127559   0.5545383445
	    H     0.1057653432  -2.0558028638   0.2915765679
	    H     3.6914049991   0.7972824240   1.4122110364
	    H     3.9685102931   2.2985023846   0.4900972436
	    H     4.3464621488  -0.2207619282  -0.6630289565
	    H     3.6830259197   1.1059726173  -1.6404393369
	    H     0.8925058983  -1.5693917879  -1.9505971935
	    H     2.4189374316  -1.1056755445  -2.7602644682
	    H     2.4530348327  -2.2608615941  -1.4120824007
	    H     1.5045617251   1.7554010393   1.6854648494
	    H     1.5638692097   2.5724785503   0.1069606264
	    H    -4.7952779100  -0.1045688077   0.5893404176
	Saving final (previous) structure.
	Cleaning optimization helper files.
			--------------------------
			 OPTKING Finished Execution 
			--------------------------

    Final optimized geometry and variables:
    Molecular point group: c1
    Full point group: C1

    Geometry (in Angstrom), charge = 0, multiplicity = 1:

    C            3.364615425005     1.376428963072     0.529870622613
    C            1.847133030752     1.643135018188     0.641598657867
    C            1.234803311045     0.428384175463    -0.050918571988
    C            2.154042704366    -0.194484357651    -0.831228991038
    C            3.506921862663     0.495573325907    -0.730655446313
    C           -0.202044558144     0.084744341848     0.106971539350
    C           -0.635080893037    -1.250845248922     0.267264585141
    C           -1.989205977790    -1.567179439046     0.425654657597
    C           -2.952841317527    -0.544305840851     0.437091866643
    C           -2.542710081455     0.791216838018     0.298933294186
    C           -1.181908699430     1.096517822510     0.143182964176
    C            1.957341747834    -1.344088305612    -1.783981401372
    H           -0.883673301368     2.144602554391     0.037268890595
    H           -3.285752718951     1.597719789907     0.314816343583
    O           -4.262768872864    -0.909792905878     0.595299876735
    H           -2.317976600128    -2.602412766159     0.554538346708
    H            0.105765343582    -2.055802871898     0.291576569085
    H            3.691405013657     0.797282427176     1.412211041953
    H            3.968510308652     2.298502393621     0.490097245535
    H            4.346462165852    -0.220761929063    -0.663028959063
    H            3.683025934206     1.105972621617    -1.640439343301
    H            0.892505901814    -1.569391794039    -1.950597201121
    H            2.418937441062    -1.105675548840    -2.760264479091
    H            2.453034842313    -2.260861602951    -1.412082406231
    H            1.504561731008     1.755401046171     1.685464855997
    H            1.563869215805     2.572478560442     0.106960626841
    H           -4.795277928832    -0.104568808125     0.589340419869

	Removing binary optimization data file.
	Cleaning optimization helper files.


Properties will be evaluated at   0.000000,   0.000000,   0.000000 [a0]
OEProp: No title given, name of density matrix used for the following properties is 'SCF density'
  Mulliken Charges: (a.u.)
   Center  Symbol    Alpha    Beta     Spin     Total
       1     C     3.02123  3.02123  0.00000 -0.04245
       2     C     2.99136  2.99136  0.00000  0.01727
       3     C     3.03309  3.03309  0.00000 -0.06618
       4     C     3.11289  3.11289  0.00000 -0.22577
       5     C     2.99277  2.99277  0.00000  0.01447
       6     C     3.05190  3.05190  0.00000 -0.10381
       7     C     2.99412  2.99412  0.00000  0.01176
       8     C     2.99678  2.99678  0.00000  0.00644
       9     C     2.96100  2.96100  0.00000  0.07801
      10     C     3.02015  3.02015  0.00000 -0.04031
      11     C     2.99572  2.99572  0.00000  0.00856
      12     C     2.98875  2.98875  0.00000  0.02250
      13     H     0.49643  0.49643  0.00000  0.00714
      14     H     0.49416  0.49416  0.00000  0.01169
      15     O     4.11137  4.11137  0.00000 -0.22275
      16     H     0.48847  0.48847  0.00000  0.02306
      17     H     0.49458  0.49458  0.00000  0.01084
      18     H     0.48229  0.48229  0.00000  0.03542
      19     H     0.48811  0.48811  0.00000  0.02378
      20     H     0.48548  0.48548  0.00000  0.02904
      21     H     0.48088  0.48088  0.00000  0.03824
      22     H     0.47556  0.47556  0.00000  0.04887
      23     H     0.47975  0.47975  0.00000  0.04050
      24     H     0.47695  0.47695  0.00000  0.04609
      25     H     0.48267  0.48267  0.00000  0.03466
      26     H     0.47974  0.47974  0.00000  0.04053
      27     H     0.42379  0.42379  0.00000  0.15241

   Total alpha = 47.00000, Total beta = 47.00000, Total charge = -0.00000

    Molecular point group: c1
    Full point group: C1

    Geometry (in Angstrom), charge = 0, multiplicity = 1:

       Center              X                  Y                   Z               Mass       
    ------------   -----------------  -----------------  -----------------  -----------------
         C            3.364615425005     1.376428963072     0.529870622613    12.000000000000
         C            1.847133030752     1.643135018188     0.641598657867    12.000000000000
         C            1.234803311045     0.428384175463    -0.050918571988    12.000000000000
         C            2.154042704366    -0.194484357651    -0.831228991038    12.000000000000
         C            3.506921862663     0.495573325907    -0.730655446313    12.000000000000
         C           -0.202044558144     0.084744341848     0.106971539350    12.000000000000
         C           -0.635080893037    -1.250845248922     0.267264585141    12.000000000000
         C           -1.989205977790    -1.567179439046     0.425654657597    12.000000000000
         C           -2.952841317527    -0.544305840851     0.437091866643    12.000000000000
         C           -2.542710081455     0.791216838018     0.298933294186    12.000000000000
         C           -1.181908699430     1.096517822510     0.143182964176    12.000000000000
         C            1.957341747834    -1.344088305612    -1.783981401372    12.000000000000
         H           -0.883673301368     2.144602554391     0.037268890595     1.007825032230
         H           -3.285752718951     1.597719789907     0.314816343583     1.007825032230
         O           -4.262768872864    -0.909792905878     0.595299876735    15.994914619570
         H           -2.317976600128    -2.602412766159     0.554538346708     1.007825032230
         H            0.105765343582    -2.055802871898     0.291576569085     1.007825032230
         H            3.691405013657     0.797282427176     1.412211041953     1.007825032230
         H            3.968510308652     2.298502393621     0.490097245535     1.007825032230
         H            4.346462165852    -0.220761929063    -0.663028959063     1.007825032230
         H            3.683025934206     1.105972621617    -1.640439343301     1.007825032230
         H            0.892505901814    -1.569391794039    -1.950597201121     1.007825032230
         H            2.418937441062    -1.105675548840    -2.760264479091     1.007825032230
         H            2.453034842313    -2.260861602951    -1.412082406231     1.007825032230
         H            1.504561731008     1.755401046171     1.685464855997     1.007825032230
         H            1.563869215805     2.572478560442     0.106960626841     1.007825032230
         H           -4.795277928832    -0.104568808125     0.589340419869     1.007825032230



  Variable Map:
  ----------------------------------------------------------------------------
  "CC D1 DIAGNOSTIC"                      =>       0.035826238054
  "CC D2 DIAGNOSTIC"                      =>       0.195047880889
  "CC NEW D1 DIAGNOSTIC"                  =>       0.035826238054
  "CC T1 DIAGNOSTIC"                      =>       0.008936156033
  "CCSD CORRELATION ENERGY"               =>      -1.916245862924
  "CCSD DOUBLES ENERGY"                   =>      -1.916245862924
  "CCSD ITERATIONS"                       =>      19.000000000000
  "CCSD OPPOSITE-SPIN CORRELATION ENERGY" =>      -1.487068210014
  "CCSD SAME-SPIN CORRELATION ENERGY"     =>      -0.429177652910
  "CCSD SINGLES ENERGY"                   =>       0.000000000000
  "CCSD TOTAL ENERGY"                     =>    -539.379492894735
  "CURRENT CORRELATION ENERGY"            =>      -1.916245862924
  "CURRENT DIPOLE X"                      =>       0.053010074021
  "CURRENT DIPOLE Y"                      =>       1.298173624889
  "CURRENT DIPOLE Z"                      =>      -0.278017423637
  "CURRENT ENERGY"                        =>    -539.379492894735
  "CURRENT REFERENCE ENERGY"              =>    -537.462463188671
  "HF TOTAL ENERGY"                       =>    -537.462463188671
  "LCCSD (+LMP2) TOTAL ENERGY"            =>    -539.379492894735
  "MP2 CORRELATION ENERGY"                =>      -1.829807495525
  "MP2 DOUBLES ENERGY"                    =>      -1.829807495525
  "MP2 OPPOSITE-SPIN CORRELATION ENERGY"  =>      -1.351510138425
  "MP2 SAME-SPIN CORRELATION ENERGY"      =>      -0.478297357100
  "MP2 SINGLES ENERGY"                    =>      -0.000000000000
  "MP2 TOTAL ENERGY"                      =>    -539.293054527335
  "NUCLEAR REPULSION ENERGY"              =>     743.335680670818
  "ONE-ELECTRON ENERGY"                   =>   -2204.070038911199
  "OPTIMIZATION ITERATIONS"               =>       6.000000000000
  "PCM POLARIZATION ENERGY"               =>       0.000000000000
  "PE ENERGY"                             =>       0.000000000000
  "SCF DIPOLE X"                          =>       0.053010074021
  "SCF DIPOLE Y"                          =>       1.298173624889
  "SCF DIPOLE Z"                          =>      -0.278017423637
  "SCF ITERATION ENERGY"                  =>    -537.462463188671
  "SCF ITERATIONS"                        =>      12.000000000000
  "SCF TOTAL ENERGY"                      =>    -537.462463188671
  "TWO-ELECTRON ENERGY"                   =>     923.271895051710



    Psi4 stopped on: Friday, 11 February 2022 02:53AM
    Psi4 wall time for execution: 1 day, 12:08:30.11

*** Psi4 exiting successfully. Buy a developer a beer!
