
    -----------------------------------------------------------------------
          Psi4: An Open-Source Ab Initio Electronic Structure Package
                               Psi4 1.4 release

                         Git: Rev {HEAD} 9485035 


    D. G. A. Smith, L. A. Burns, A. C. Simmonett, R. M. Parrish,
    M. C. Schieber, R. Galvelis, P. Kraus, H. Kruse, R. Di Remigio,
    A. Alenaizan, A. M. James, S. Lehtola, J. P. Misiewicz, M. Scheurer,
    R. A. Shaw, J. B. Schriber, Y. Xie, Z. L. Glick, D. A. Sirianni,
    J. S. O'Brien, J. M. Waldrop, A. Kumar, E. G. Hohenstein,
    B. P. Pritchard, B. R. Brooks, H. F. Schaefer III, A. Yu. Sokolov,
    K. Patkowski, A. E. DePrince III, U. Bozkaya, R. A. King,
    F. A. Evangelista, J. M. Turney, T. D. Crawford, C. D. Sherrill,
    J. Chem. Phys. 152(18) 184108 (2020). https://doi.org/10.1063/5.0006002

                            Additional Code Authors
    E. T. Seidl, C. L. Janssen, E. F. Valeev, M. L. Leininger,
    J. F. Gonthier, R. M. Richard, H. R. McAlexander, M. Saitow, X. Wang,
    P. Verma, and M. H. Lechner

             Previous Authors, Complete List of Code Contributors,
                       and Citations for Specific Modules
    https://github.com/psi4/psi4/blob/master/codemeta.json
    https://github.com/psi4/psi4/graphs/contributors
    http://psicode.org/psi4manual/master/introduction.html#citing-psifour

    -----------------------------------------------------------------------


    Psi4 started on: Thursday, 17 February 2022 03:22PM

    Process ID: 95242
    Host:       skylm003.palmetto.clemson.edu
    PSIDATADIR: /home/maxbuskirk/.conda/envs/psifour/share/psi4
    Memory:     500.0 MiB
    Threads:    1
    
  ==> Input File <==

--------------------------------------------------------------------------
memory 62 GB

molecule mol {
1 1
    C            2.561235381618    -0.389938516782    -1.298497476741
    C            1.540610317784     0.782775633096    -0.756602404409
    C            2.394881390297     1.612884911786     0.226423180861
    C            3.514578228887     0.670462851619     0.709450004074
    C            3.885173808400    -0.148970918863    -0.539226278947
    H            4.347036734233    -1.122545970482    -0.310270197737
    H            4.590537514681     0.409202191214    -1.178608101660
    H            3.132260355018     0.002942172612     1.502025787378
    H            4.377834024631     1.215266354758     1.123230799214
    H            1.757985176415     1.971080079640     1.049448453815
    H            2.810855385358     2.497561132527    -0.288834086693
    C            0.190974859813     0.283141853057    -0.304166217150
    C            0.088357952948    -0.650167678742     0.746698608252
    C           -1.165941810735    -1.070373344967     1.202844284784
    C           -2.331026112281    -0.546928179663     0.613703040378
    C           -2.242446598457     0.393290741816    -0.423670352686
    C           -0.981190779517     0.807127428749    -0.877403510651
    H           -0.926523115720     1.559061184099    -1.672847561756
    H           -3.152607431405     0.802369559075    -0.869325421360
    CL          -3.884962459579    -1.065107554236     1.174759843086
    H           -1.245739830303    -1.801036658582     2.011618646709
    H            0.987913362111    -1.067278936316     1.212336662231
    C            1.759593788558     0.939203675880    -2.169077159509
    H            1.025039364232     0.536819573541    -2.876140951746
    H            2.489614284822     1.660679235721    -2.556050556866
    H            2.044530424979    -1.358763436452    -1.298908703739
    H            2.840095877635    -0.289121014814    -2.441788126882
}

set scf_type df
set opt_type ts
set basis cc-pVDZ
set reference rhf
set geom_maxiter 400


mol.update_geometry()
mol.symmetrize(1e-3)

e, wfn = optimize('CCSD', return_wfn=True)
oeprop(wfn, "MULLIKEN_CHARGES")
mol.print_out()
print_variables()
--------------------------------------------------------------------------

  Memory set to  57.742 GiB by Python driver.

Scratch directory: /scratch1/maxbuskirk/
gradient() will perform analytic gradient computation.

*** tstart() called on skylm003.palmetto.clemson.edu
*** at Thu Feb 17 15:22:16 2022

   => Loading Basis Set <=

    Name: CC-PVDZ
    Role: ORBITAL
    Keyword: BASIS
    atoms 1-5, 12-17, 23            entry C          line   138 file /home/maxbuskirk/.conda/envs/psifour/share/psi4/basis/cc-pvdz.gbs 
    atoms 6-11, 18-19, 21-22, 24-27 entry H          line    22 file /home/maxbuskirk/.conda/envs/psifour/share/psi4/basis/cc-pvdz.gbs 
    atoms 20                        entry CL         line   658 file /home/maxbuskirk/.conda/envs/psifour/share/psi4/basis/cc-pvdz.gbs 


         ---------------------------------------------------------
                                   SCF
               by Justin Turney, Rob Parrish, Andy Simmonett
                          and Daniel G. A. Smith
                              RHF Reference
                        1 Threads,  59127 MiB Core
         ---------------------------------------------------------

  ==> Geometry <==

    Molecular point group: c1
    Full point group: C1

    Geometry (in Angstrom), charge = 1, multiplicity = 1:

       Center              X                  Y                   Z               Mass       
    ------------   -----------------  -----------------  -----------------  -----------------
         C            2.561235381618    -0.389938516782    -1.298497476741    12.000000000000
         C            1.540610317784     0.782775633096    -0.756602404409    12.000000000000
         C            2.394881390297     1.612884911786     0.226423180861    12.000000000000
         C            3.514578228887     0.670462851619     0.709450004074    12.000000000000
         C            3.885173808400    -0.148970918863    -0.539226278947    12.000000000000
         H            4.347036734233    -1.122545970482    -0.310270197737     1.007825032230
         H            4.590537514681     0.409202191214    -1.178608101660     1.007825032230
         H            3.132260355018     0.002942172612     1.502025787378     1.007825032230
         H            4.377834024631     1.215266354758     1.123230799214     1.007825032230
         H            1.757985176415     1.971080079640     1.049448453815     1.007825032230
         H            2.810855385358     2.497561132527    -0.288834086693     1.007825032230
         C            0.190974859813     0.283141853057    -0.304166217150    12.000000000000
         C            0.088357952948    -0.650167678742     0.746698608252    12.000000000000
         C           -1.165941810735    -1.070373344967     1.202844284784    12.000000000000
         C           -2.331026112281    -0.546928179663     0.613703040378    12.000000000000
         C           -2.242446598457     0.393290741816    -0.423670352686    12.000000000000
         C           -0.981190779517     0.807127428749    -0.877403510651    12.000000000000
         H           -0.926523115720     1.559061184099    -1.672847561756     1.007825032230
         H           -3.152607431405     0.802369559075    -0.869325421360     1.007825032230
         CL          -3.884962459579    -1.065107554236     1.174759843086    34.968852682000
         H           -1.245739830303    -1.801036658582     2.011618646709     1.007825032230
         H            0.987913362111    -1.067278936316     1.212336662231     1.007825032230
         C            1.759593788558     0.939203675880    -2.169077159509    12.000000000000
         H            1.025039364232     0.536819573541    -2.876140951746     1.007825032230
         H            2.489614284822     1.660679235721    -2.556050556866     1.007825032230
         H            2.044530424979    -1.358763436452    -1.298908703739     1.007825032230
         H            2.840095877635    -0.289121014814    -2.441788126882     1.007825032230

  Running in c1 symmetry.

  Rotational constants: A =      0.06585  B =      0.01099  C =      0.01029 [cm^-1]
  Rotational constants: A =   1974.14589  B =    329.54205  C =    308.46468 [MHz]
  Nuclear repulsion =  845.546660839919014

  Charge       = 1
  Multiplicity = 1
  Electrons    = 102
  Nalpha       = 51
  Nbeta        = 51

  ==> Algorithm <==

  SCF Algorithm Type is DF.
  DIIS enabled.
  MOM disabled.
  Fractional occupation disabled.
  Guess Type is SAD.
  Energy threshold   = 1.00e-10
  Density threshold  = 1.00e-10
  Integral threshold = 1.00e-12

  ==> Primary Basis <==

  Basis Set: CC-PVDZ
    Blend: CC-PVDZ
    Number of shells: 122
    Number of basis functions: 256
    Number of Cartesian functions: 269
    Spherical Harmonics?: true
    Max angular momentum: 2

   => Loading Basis Set <=

    Name: (CC-PVDZ AUX)
    Role: JKFIT
    Keyword: DF_BASIS_SCF
    atoms 1-5, 12-17, 23            entry C          line   121 file /home/maxbuskirk/.conda/envs/psifour/share/psi4/basis/cc-pvdz-jkfit.gbs 
    atoms 6-11, 18-19, 21-22, 24-27 entry H          line    51 file /home/maxbuskirk/.conda/envs/psifour/share/psi4/basis/cc-pvdz-jkfit.gbs 
    atoms 20                        entry CL         line   667 file /home/maxbuskirk/.conda/envs/psifour/share/psi4/basis/cc-pvdz-jkfit.gbs 

  ==> Integral Setup <==

  DFHelper Memory: AOs need 0.579 GiB; user supplied 43.306 GiB. Using in-core AOs.

  ==> MemDFJK: Density-Fitted J/K Matrices <==

    J tasked:                   Yes
    K tasked:                   Yes
    wK tasked:                   No
    OpenMP threads:               1
    Memory [MiB]:             44345
    Algorithm:                 Core
    Schwarz Cutoff:           1E-12
    Mask sparsity (%):      10.5530
    Fitting Condition:        1E-10

   => Auxiliary Basis Set <=

  Basis Set: (CC-PVDZ AUX)
    Blend: CC-PVDZ-JKFIT
    Number of shells: 450
    Number of basis functions: 1274
    Number of Cartesian functions: 1452
    Spherical Harmonics?: true
    Max angular momentum: 3

  Minimum eigenvalue in the overlap matrix is 3.0704411364E-04.
  Reciprocal condition number of the overlap matrix is 4.3556000409E-05.
    Using symmetric orthogonalization.

  ==> Pre-Iterations <==

  SCF Guess: Superposition of Atomic Densities via on-the-fly atomic UHF (no occupation information).

   -------------------------
    Irrep   Nso     Nmo    
   -------------------------
     A        256     256 
   -------------------------
    Total     256     256
   -------------------------

  ==> Iterations <==

                           Total Energy        Delta E     RMS |[F,P]|

   @DF-RHF iter SAD:  -921.91022433697310   -9.21910e+02   0.00000e+00 
   @DF-RHF iter   1:  -921.56764790770660    3.42576e-01   2.16235e-03 DIIS
   @DF-RHF iter   2:  -921.76730717927694   -1.99659e-01   9.20234e-04 DIIS
   @DF-RHF iter   3:  -921.79809590222794   -3.07887e-02   2.77984e-04 DIIS
   @DF-RHF iter   4:  -921.80213538835380   -4.03949e-03   8.43338e-05 DIIS
   @DF-RHF iter   5:  -921.80244110914532   -3.05721e-04   2.92086e-05 DIIS
   @DF-RHF iter   6:  -921.80249175773110   -5.06486e-05   8.43350e-06 DIIS
   @DF-RHF iter   7:  -921.80249812175396   -6.36402e-06   2.76027e-06 DIIS
   @DF-RHF iter   8:  -921.80249904802895   -9.26275e-07   1.26207e-06 DIIS
   @DF-RHF iter   9:  -921.80249920484243   -1.56813e-07   4.82892e-07 DIIS
   @DF-RHF iter  10:  -921.80249923895872   -3.41163e-08   2.55965e-07 DIIS
   @DF-RHF iter  11:  -921.80249924989971   -1.09410e-08   1.16613e-07 DIIS
   @DF-RHF iter  12:  -921.80249925223040   -2.33069e-09   3.82488e-08 DIIS
   @DF-RHF iter  13:  -921.80249925245835   -2.27942e-10   1.51740e-08 DIIS
   @DF-RHF iter  14:  -921.80249925248177   -2.34195e-11   4.93759e-09 DIIS
   @DF-RHF iter  15:  -921.80249925248586   -4.09273e-12   1.75642e-09 DIIS
   @DF-RHF iter  16:  -921.80249925248415    1.70530e-12   7.41699e-10 DIIS
   @DF-RHF iter  17:  -921.80249925248563   -1.47793e-12   2.69235e-10 DIIS
   @DF-RHF iter  18:  -921.80249925248631   -6.82121e-13   1.23780e-10 DIIS
   @DF-RHF iter  19:  -921.80249925248506    1.25056e-12   5.91734e-11 DIIS
  Energy and wave function converged.


  ==> Post-Iterations <==

    Orbital Energies [Eh]
    ---------------------

    Doubly Occupied:                                                      

       1A   -104.937823     2A    -11.523510     3A    -11.475492  
       4A    -11.470527     5A    -11.430585     6A    -11.413320  
       7A    -11.404638     8A    -11.402968     9A    -11.393771  
      10A    -11.392019    11A    -11.389303    12A    -11.382111  
      13A    -11.381360    14A    -10.664687    15A     -8.132324  
      16A     -8.128668    17A     -8.128621    18A     -1.385830  
      19A     -1.307998    20A     -1.244288    21A     -1.222699  
      22A     -1.168555    23A     -1.157657    24A     -1.120715  
      25A     -1.049523    26A     -0.993097    27A     -0.974079  
      28A     -0.964899    29A     -0.929700    30A     -0.873712  
      31A     -0.829566    32A     -0.805313    33A     -0.793600  
      34A     -0.781169    35A     -0.774442    36A     -0.765162  
      37A     -0.732754    38A     -0.725858    39A     -0.695698  
      40A     -0.686344    41A     -0.667840    42A     -0.656865  
      43A     -0.654682    44A     -0.645688    45A     -0.638241  
      46A     -0.628484    47A     -0.617910    48A     -0.578490  
      49A     -0.555400    50A     -0.476096    51A     -0.454995  

    Virtual:                                                              

      52A     -0.059606    53A     -0.016290    54A     -0.013000  
      55A      0.003618    56A      0.032766    57A      0.042606  
      58A      0.048100    59A      0.066661    60A      0.087448  
      61A      0.094825    62A      0.095544    63A      0.112427  
      64A      0.114662    65A      0.123536    66A      0.135995  
      67A      0.144405    68A      0.147806    69A      0.158392  
      70A      0.177030    71A      0.197689    72A      0.213174  
      73A      0.226947    74A      0.236744    75A      0.259981  
      76A      0.283788    77A      0.305228    78A      0.311007  
      79A      0.327187    80A      0.332344    81A      0.351148  
      82A      0.394133    83A      0.420379    84A      0.440872  
      85A      0.451763    86A      0.478226    87A      0.485476  
      88A      0.494910    89A      0.505426    90A      0.510173  
      91A      0.526961    92A      0.540515    93A      0.552610  
      94A      0.560499    95A      0.565185    96A      0.580575  
      97A      0.591629    98A      0.598080    99A      0.603247  
     100A      0.610930   101A      0.615645   102A      0.626842  
     103A      0.640795   104A      0.652277   105A      0.663245  
     106A      0.668392   107A      0.670654   108A      0.678017  
     109A      0.684160   110A      0.694141   111A      0.701117  
     112A      0.704076   113A      0.707924   114A      0.720686  
     115A      0.727720   116A      0.736969   117A      0.743783  
     118A      0.753098   119A      0.755666   120A      0.757879  
     121A      0.777951   122A      0.783296   123A      0.786062  
     124A      0.793441   125A      0.802773   126A      0.814372  
     127A      0.828777   128A      0.856518   129A      0.867567  
     130A      0.881062   131A      0.893153   132A      0.906444  
     133A      0.957809   134A      0.962511   135A      0.973724  
     136A      1.011546   137A      1.014550   138A      1.029923  
     139A      1.045685   140A      1.070320   141A      1.077216  
     142A      1.086143   143A      1.095826   144A      1.102151  
     145A      1.120918   146A      1.130304   147A      1.146442  
     148A      1.162605   149A      1.179536   150A      1.194407  
     151A      1.211482   152A      1.232005   153A      1.261692  
     154A      1.276192   155A      1.291210   156A      1.311807  
     157A      1.344199   158A      1.360343   159A      1.360713  
     160A      1.395433   161A      1.405723   162A      1.432763  
     163A      1.455800   164A      1.485980   165A      1.511572  
     166A      1.516157   167A      1.545220   168A      1.558022  
     169A      1.583088   170A      1.595510   171A      1.613183  
     172A      1.624919   173A      1.636628   174A      1.643904  
     175A      1.655079   176A      1.666370   177A      1.683425  
     178A      1.686777   179A      1.704811   180A      1.720137  
     181A      1.735237   182A      1.742671   183A      1.752558  
     184A      1.758026   185A      1.764990   186A      1.769864  
     187A      1.780134   188A      1.782977   189A      1.797641  
     190A      1.811019   191A      1.813132   192A      1.826172  
     193A      1.841871   194A      1.847107   195A      1.859052  
     196A      1.877250   197A      1.886644   198A      1.899304  
     199A      1.915387   200A      1.923391   201A      1.928742  
     202A      1.930643   203A      1.943766   204A      1.952605  
     205A      1.972302   206A      1.992295   207A      2.003487  
     208A      2.026031   209A      2.035997   210A      2.036617  
     211A      2.060693   212A      2.074621   213A      2.086524  
     214A      2.096542   215A      2.113484   216A      2.119826  
     217A      2.137856   218A      2.154492   219A      2.173357  
     220A      2.205514   221A      2.227323   222A      2.236884  
     223A      2.260693   224A      2.266774   225A      2.293849  
     226A      2.296493   227A      2.303123   228A      2.309756  
     229A      2.350836   230A      2.382741   231A      2.404203  
     232A      2.409595   233A      2.445826   234A      2.454844  
     235A      2.482144   236A      2.539503   237A      2.563706  
     238A      2.574473   239A      2.595269   240A      2.609486  
     241A      2.630334   242A      2.645950   243A      2.664525  
     244A      2.696060   245A      2.744891   246A      2.764164  
     247A      2.807442   248A      2.817238   249A      2.839376  
     250A      2.862670   251A      2.888556   252A      2.920390  
     253A      2.941246   254A      3.007257   255A      3.107641  
     256A      3.628413  

    Final Occupation by Irrep:
              A 
    DOCC [    51 ]

  @DF-RHF Final Energy:  -921.80249925248506

   => Energetics <=

    Nuclear Repulsion Energy =            845.5466608399190136
    One-Electron Energy =               -2923.4801674341492799
    Two-Electron Energy =                1156.1310073417455442
    Total Energy =                       -921.8024992524849495

Computation Completed


Properties will be evaluated at   0.000000,   0.000000,   0.000000 [a0]

Properties computed using the SCF density matrix

  Nuclear Dipole Moment: [e a0]
     X:    27.0671      Y:     5.6776      Z:    -7.2572

  Electronic Dipole Moment: [e a0]
     X:   -23.1775      Y:    -4.8626      Z:     4.9226

  Dipole Moment: [e a0]
     X:     3.8896      Y:     0.8150      Z:    -2.3346     Total:     4.6091

  Dipole Moment: [D]
     X:     9.8863      Y:     2.0715      Z:    -5.9340     Total:    11.7151


*** tstop() called on skylm003.palmetto.clemson.edu at Thu Feb 17 15:22:39 2022
Module time:
	user time   =      20.13 seconds =       0.34 minutes
	system time =       1.09 seconds =       0.02 minutes
	total time  =         23 seconds =       0.38 minutes
Total time:
	user time   =      20.13 seconds =       0.34 minutes
	system time =       1.09 seconds =       0.02 minutes
	total time  =         23 seconds =       0.38 minutes
 MINTS: Wrapper to libmints.
   by Justin Turney

   Calculation information:
      Number of threads:                 1
      Number of atoms:                  27
      Number of AO shells:             122
      Number of SO shells:             122
      Number of primitives:            384
      Number of atomic orbitals:       269
      Number of basis functions:       256

      Number of irreps:                  1
      Integral cutoff                 1.00e-12
      Number of functions per irrep: [ 256 ]

 OEINTS: Overlap, kinetic, potential, dipole, and quadrupole integrals
         stored in file 35.

      Computing two-electron integrals...done
      Computed 345861509 non-zero two-electron integrals.
        Stored in file 33.


*** tstart() called on skylm003.palmetto.clemson.edu
*** at Thu Feb 17 15:29:18 2022


	Wfn Parameters:
	--------------------
	Wavefunction         = CCSD
	Number of irreps     = 1
	Number of MOs        = 256
	Number of active MOs = 256
	AO-Basis             = NONE
	Semicanonical        = false
	Reference            = RHF
	Print Level          = 1

	IRREP	# MOs	# FZDC	# DOCC	# SOCC	# VIRT	# FZVR
	-----	-----	------	------	------	------	------
	 A	   256	    0	    51	    0	    205	    0
	Transforming integrals...
	IWL integrals will be deleted.
	(OO|OO)...
	Presorting SO-basis two-electron integrals.
	Sorting File: SO Ints (nn|nn) nbuckets = 1
	Constructing frozen core operators
	Starting first half-transformation.
	Sorting half-transformed integrals.
	First half integral transformation complete.
	Starting second half-transformation.
	Two-electron integral transformation complete.
	(OO|OV)...
	Starting second half-transformation.
	Two-electron integral transformation complete.
	(OO|VV)...
	Starting second half-transformation.
	Two-electron integral transformation complete.
	(OV|OO)...
	Starting first half-transformation.
	Sorting half-transformed integrals.
	First half integral transformation complete.
	Starting second half-transformation.
	Two-electron integral transformation complete.
	(OV|OV)...
	Starting second half-transformation.
	Two-electron integral transformation complete.
	(OV|VV)...
	Starting second half-transformation.
	Two-electron integral transformation complete.
	(VV|OO)...
	Starting first half-transformation.
	Sorting half-transformed integrals.
	First half integral transformation complete.
	Starting second half-transformation.
	Two-electron integral transformation complete.
	(VV|OV)...
	Starting second half-transformation.
	Two-electron integral transformation complete.
	(VV|VV)...
	Starting second half-transformation.
	Two-electron integral transformation complete.
	Frozen core energy     =      0.00000000000000

	Size of irrep 0 of <ab|cd> integrals:   1766.101 (MW) /  14128.805 (MB)
	Total:                                  1766.101 (MW) /  14128.805 (MB)

	Size of irrep 0 of <ia|bc> integrals:    439.371 (MW) /   3514.971 (MB)
	Total:                                   439.371 (MW) /   3514.971 (MB)

	Size of irrep 0 of tijab amplitudes:     109.307 (MW) /    874.456 (MB)
	Total:                                   109.307 (MW) /    874.456 (MB)

	Nuclear Rep. energy          =    845.54666083991901
	SCF energy                   =   -921.80249925248506
	One-electron energy          =  -2923.48016739951299
	Two-electron energy          =   1156.13025134784652
	Reference energy             =   -921.80325521174746

*** tstop() called on skylm003.palmetto.clemson.edu at Thu Feb 17 15:40:20 2022
Module time:
	user time   =     277.71 seconds =       4.63 minutes
	system time =     118.50 seconds =       1.98 minutes
	total time  =        662 seconds =      11.03 minutes
Total time:
	user time   =     553.99 seconds =       9.23 minutes
	system time =     130.08 seconds =       2.17 minutes
	total time  =       1084 seconds =      18.07 minutes
            **************************
            *                        *
            *        CCENERGY        *
            *                        *
            **************************

    Nuclear Rep. energy (wfn)     =  845.546660839919014
    SCF energy          (wfn)     = -921.802499252485063
    Reference energy    (file100) = -921.803255211747455

    Input parameters:
    -----------------
    Wave function   =     CCSD
    Reference wfn   =     RHF
    Brueckner       =     No
    Memory (Mbytes) =     62000.0
    Maxiter         =     50
    R_Convergence   =     1.0e-07
    E_Convergence   =     1.0e-08
    Restart         =     Yes
    DIIS            =     Yes
    AO Basis        =     NONE
    ABCD            =     NEW
    Cache Level     =     2
    Cache Type      =     LOW
    Print Level     =     1
    Num. of threads =     1
    # Amps to Print =     10
    Print MP2 Amps? =     No
    Analyze T2 Amps =     No
    Print Pair Ener =     No
    Local CC        =     No
    SCS-MP2         =     False
    SCSN-MP2        =     False
    SCS-CCSD        =     False

MP2 correlation energy -1.7877771714949349
                Solving CC Amplitude Equations
                ------------------------------
  Iter             Energy              RMS        T1Diag      D1Diag    New D1Diag    D2Diag
  ----     ---------------------    ---------   ----------  ----------  ----------   --------
     0        -1.787777171494935    0.000e+00    0.000000    0.000000    0.000000    0.178186
     1        -1.817190068794775    1.311e-01    0.006959    0.027975    0.027975    0.167183
     2        -1.866243079157681    4.493e-02    0.007101    0.028262    0.028262    0.180914
     3        -1.877057290138574    1.870e-02    0.008173    0.034845    0.034845    0.184901
     4        -1.877079796802706    5.552e-03    0.008312    0.035900    0.035900    0.186675
     5        -1.877235079120531    2.754e-03    0.008404    0.037137    0.037137    0.187681
     6        -1.877292749030550    7.861e-04    0.008428    0.037486    0.037486    0.187941
     7        -1.877268838060849    3.667e-04    0.008434    0.037667    0.037667    0.187993
     8        -1.877260593894971    1.341e-04    0.008438    0.037739    0.037739    0.188005
     9        -1.877265738537949    7.349e-05    0.008440    0.037781    0.037781    0.188005
    10        -1.877263062095541    3.776e-05    0.008442    0.037808    0.037808    0.188000
    11        -1.877262345065103    1.582e-05    0.008442    0.037816    0.037816    0.187999
    12        -1.877261942612379    7.602e-06    0.008442    0.037821    0.037821    0.187998
    13        -1.877261617184501    2.585e-06    0.008442    0.037820    0.037820    0.187998
    14        -1.877261519104490    1.306e-06    0.008442    0.037821    0.037821    0.187997
    15        -1.877261491151907    5.637e-07    0.008442    0.037821    0.037821    0.187997
    16        -1.877261475634737    2.718e-07    0.008442    0.037821    0.037821    0.187997
    17        -1.877261476135995    1.096e-07    0.008442    0.037821    0.037821    0.187997
    18        -1.877261476904684    4.680e-08    0.008442    0.037821    0.037821    0.187997

    Iterations converged.


    Largest TIA Amplitudes:
             47   1         0.0173570919
             49  47         0.0146833800
             40   0        -0.0132262295
             50   0         0.0118938814
             49  45        -0.0111839156
             50  79        -0.0108559443
             41   0         0.0106793948
             49  91         0.0095630295
             50  42        -0.0094440443
             46   0        -0.0087383884

    Largest TIjAb Amplitudes:
     49  49   2   2        -0.0801931615
     50  50   1   1        -0.0591543780
     49  50   1   2        -0.0399079860
     50  49   2   1        -0.0399079860
     49  49   1   1        -0.0292850001
     50  50   2   2        -0.0291195502
     48  48  78  78        -0.0271036033
     50  50   0   1         0.0200645128
     50  50   1   0         0.0200645128
     47  50   1   1        -0.0173893103

    SCF energy       (wfn)                    = -921.802499252485063
    Reference energy (file100)                = -921.803255211747455

    Opposite-spin MP2 correlation energy      =   -1.319064582084668
    Same-spin MP2 correlation energy          =   -0.468712589410267
    Singles MP2 correlation energy            =   -0.000000000000000
    MP2 correlation energy                    =   -1.787777171494935
      * MP2 total energy                      = -923.591032383242350

    Opposite-spin CCSD correlation energy     =   -1.454196725533602
    Same-spin CCSD correlation energy         =   -0.423064751371082
    Singles CCSD correlation energy           =    0.000000000000000
    CCSD correlation energy                   =   -1.877261476904684
      * CCSD total energy                     = -923.680516688652119


			**************************
			*                        *
			*         CCHBAR         *
			*                        *
			**************************


			**************************
			*        CCLAMBDA        *
			**************************


	Nuclear Rep. energy (wfn)     =  845.546660839919014
	Reference           (wfn)     =                    0
	SCF energy          (wfn)     = -921.802499252485063
	Reference energy    (CC_INFO) = -921.803255211747455
	CCSD energy         (CC_INFO) =   -1.877261476904684
	Total CCSD energy   (CC_INFO) = -923.680516688652119

	Input parameters:
	-----------------
	Maxiter           =     50
	Convergence       = 1.0e-07
	Restart           =     No
	Cache Level       =     2
	Model III         =     No
	DIIS              =     Yes
	AO Basis          =     No
	ABCD              =     NEW
	Local CC          =     No
	Parameters for left-handed eigenvectors:
	    Irr   Root  Ground-State?    EOM energy        R0
	  1   0     0        Yes       0.0000000000   1.0000000000
	Labels for eigenvector 1:
	LIA 0 -1, Lia 0 -1, LIJAB 0 -1, Lijab 0 -1, LIjAb 0 -1, 2LIjAb - LIjbA 0 -1
	Symmetry of left-hand state: A
	Symmetry of left-hand eigenvector: A

	          Solving Lambda Equations
	          ------------------------
	Iter     PseudoEnergy or Norm         RMS  
	----     ---------------------     --------
	   0        -1.877360566165101    0.000e+00
	   1        -1.821129983619443    3.416e-02
	   2        -1.816151666284802    7.282e-03
	   3        -1.814707651809708    2.996e-03
	   4        -1.814556359432518    1.077e-03
	   5        -1.814625789744258    5.293e-04
	   6        -1.814618524021353    1.825e-04
	   7        -1.814614290974228    8.716e-05
	   8        -1.814617004002718    3.536e-05
	   9        -1.814617092324665    1.777e-05
	  10        -1.814617154662222    7.160e-06
	  11        -1.814617170791135    3.296e-06
	  12        -1.814617031432586    1.382e-06
	  13        -1.814616995854331    5.917e-07
	  14        -1.814616992513234    2.978e-07
	  15        -1.814616985890834    1.297e-07
	  16        -1.814616987250830    6.290e-08

	Largest LIA Amplitudes:
	         47   1         0.0124638217
	         49  47         0.0116397750
	         50   0         0.0091134364
	         40   0        -0.0089258067
	         49  45        -0.0088601609
	         50  79        -0.0084868564
	         49  91         0.0076477015
	         41   0         0.0074106623
	         46   0        -0.0069203362
	         50  42        -0.0069018457

	Largest LIjAb Amplitudes:
	 49  49   2   2        -0.0756309152
	 50  50   1   1        -0.0554491464
	 49  50   1   2        -0.0377797792
	 50  49   2   1        -0.0377797792
	 48  48  78  78        -0.0264854404
	 50  50   2   2        -0.0260084994
	 49  49   1   1        -0.0259600469
	 50  50   0   1         0.0187467821
	 50  50   1   0         0.0187467821
	 47  50   1   1        -0.0166007964

	Iterations converged.

	Overlap <L|e^T> =        0.28084109814

			**************************
			*                        *
			*        CCDENSITY       *
			*                        *
			**************************


	Input parameters:
	-----------------
	Wave function    =   CCSD
	Reference wfn    =   RHF
	Dertype          = 1
	Tolerance        = 1.0e-14
	Cache Level      = 2
	AO Basis         = No
	OPDM Only        = No
	Relax OPDM       = Yes
	Compute Xi       = No
	Use Zeta         = No
	Xi connected     = Yes
	Compute NO       = No

	Nuclear Rep. energy (wfn)     =  845.546660839919014
	SCF energy          (wfn)     = -921.802499252485063
	Reference energy    (file100) = -921.803255211747455
	CCSD energy         (CC_INFO) =   -1.877261476904684
	Total CCSD energy   (CC_INFO) = -923.680516688652119
	Number of States = 1

	Ground?  State     EOM Energy       R0
	  Yes     0  A    0.0000000000   1.00000000

	Virial Theorem Data:
	--------------------
	Kinetic energy (ref)   =  921.006739992291045
	Kinetic energy (corr)  =    1.651614509381389
	Kinetic energy (total) =  922.658354501672420
	-V/T (ref)             =    2.000864831042890
	-V/T (corr)            =    2.136622054505813
	-V/T (total)           =    2.001107844720630
    Molecular point group: c1
    Full point group: C1

    Geometry (in Bohr), charge = 1, multiplicity = 1:

       Center              X                  Y                   Z       
    ------------   -----------------  -----------------  -----------------
         C            4.840033414090    -0.736877002485    -2.453804605639
         C            2.911331566666     1.479231564233    -1.429771330196
         C            4.525669930617     3.047910755159     0.427877800282
         C            6.641590299093     1.266991166853     1.340666207405
         C            7.341914447678    -0.281514237309    -1.018989986860
         H            8.214708885005    -2.121304447447    -0.586325698615
         H            8.674858671387     0.773280071332    -2.227246521383
         H            5.919114224613     0.005559900450     2.838417371519
         H            8.272907329263     2.296520579976     2.122598586193
         H            3.322110516039     3.724801521865     1.983170160495
         H            5.311746856595     4.719706522064    -0.545817319547
         C            0.360890181894     0.535060556932    -0.574790847030
         C            0.166972332078    -1.228638848447     1.411055867857
         C           -2.203310700510    -2.022712473978     2.273046269814
         C           -4.405000943502    -1.033544469858     1.159730668675
         C           -4.237609922049     0.743211789710    -0.800620934053
         C           -1.854181850112     1.525249788681    -1.658052336646
         H           -1.750874937617     2.946198650779    -3.161223741359
         H           -5.957564626439     1.516258718056    -1.642786960269
         CL          -7.341515056290    -2.012761571662     2.219974366618
         H           -2.354107102847    -3.403466026630     3.801408311144
         H            1.866885690070    -2.016864889107     2.290984263468
         C            3.325150352431     1.774837723436    -4.098961776458
         H            1.937043666212     1.014441972777    -5.435118697014
         H            4.704689156341     3.138228937747    -4.830235515301
         H            3.863602558376    -2.567690764180    -2.454581712040
         H            5.367003378772    -0.546359535113    -4.614310816202

	Presorting MO-basis TPDM.
	Sorting File: MO TPDM (AA|AA) nbuckets = 1
	Starting first half-transformation.
	Sorting half-transformed TPDM.
	First half integral transformation complete.


  -Total gradient:
     Atom            X                  Y                   Z
    ------   -----------------  -----------------  -----------------
       1       -0.012569749471     0.000155109734     0.025702421618
       2        0.003688339961    -0.002498701528     0.002932332292
       3        0.000143209929     0.000410119005    -0.001626072074
       4        0.000355975072     0.000148585589    -0.000229310668
       5        0.000119336195    -0.000388242214    -0.002237192540
       6       -0.000217191634     0.000073395253     0.000262884605
       7        0.000460367349    -0.000098340228     0.000225804057
       8        0.000094966242    -0.000059650591     0.000263519961
       9        0.000167353391     0.000074230319    -0.000132613106
      10       -0.000107940727    -0.000505676057     0.000735418207
      11       -0.000470401996     0.000976462009     0.000193391928
      12       -0.000897165608     0.001537979149    -0.000548205296
      13       -0.000142322626    -0.000100916014     0.000018796850
      14        0.000349205790     0.000196874931    -0.000040731048
      15       -0.002162000687    -0.000799463540     0.000838147173
      16        0.000222759872     0.000006713246    -0.000093321524
      17       -0.000216238313    -0.000349444963     0.000193462117
      18       -0.000048517255     0.000043484018    -0.000098253408
      19       -0.000050219086     0.000033466531    -0.000035680452
      20        0.001780362265     0.000674747486    -0.000766379358
      21        0.000049740886    -0.000039830025     0.000027169414
      22        0.000135059330    -0.000021434373     0.000008029673
      23        0.005719238307    -0.005110377431    -0.004550653785
      24       -0.001118113310     0.000586360048     0.000694403935
      25       -0.001495544788     0.001660036003    -0.000834297500
      26        0.001342148593    -0.001973361755    -0.003550523796
      27        0.004867342233     0.005367875430    -0.017352547270


			-----------------------------------------
			 OPTKING 2.0: for geometry optimizations 
			  - R.A. King,  Bethel University        
			-----------------------------------------

	Internal coordinates to be generated automatically.
	Detected frag 1 with atoms:  1 2 3 4 5 6 7 8 9 10 11 12 13 14 15 16 17 18 19 20
	 21 22 23 24 25 26 27
	---Fragment 1 Bond Connectivity---
	 1 : 2 5 23 26 27
	 2 : 1 3 12 23
	 3 : 2 4 10 11
	 4 : 3 5 8 9
	 5 : 1 4 6 7
	 6 : 5
	 7 : 5
	 8 : 4
	 9 : 4
	 10 : 3
	 11 : 3
	 12 : 2 13 17
	 13 : 12 14 22
	 14 : 13 15 21
	 15 : 14 16 20
	 16 : 15 17 19
	 17 : 12 16 18
	 18 : 17
	 19 : 16
	 20 : 15
	 21 : 14
	 22 : 13
	 23 : 1 2 24 25
	 24 : 23
	 25 : 23
	 26 : 1
	 27 : 1

	---Fragment 1 Geometry and Gradient---
	 C           4.8400334141       -0.7368770025       -2.4538046056
	 C           2.9113315667        1.4792315642       -1.4297713302
	 C           4.5256699306        3.0479107552        0.4278778003
	 C           6.6415902991        1.2669911669        1.3406662074
	 C           7.3419144477       -0.2815142373       -1.0189899869
	 H           8.2147088850       -2.1213044474       -0.5863256986
	 H           8.6748586714        0.7732800713       -2.2272465214
	 H           5.9191142246        0.0055599005        2.8384173715
	 H           8.2729073293        2.2965205800        2.1225985862
	 H           3.3221105160        3.7248015219        1.9831701605
	 H           5.3117468566        4.7197065221       -0.5458173195
	 C           0.3608901819        0.5350605569       -0.5747908470
	 C           0.1669723321       -1.2286388484        1.4110558679
	 C          -2.2033107005       -2.0227124740        2.2730462698
	 C          -4.4050009435       -1.0335444699        1.1597306687
	 C          -4.2376099220        0.7432117897       -0.8006209341
	 C          -1.8541818501        1.5252497887       -1.6580523366
	 H          -1.7508749376        2.9461986508       -3.1612237414
	 H          -5.9575646264        1.5162587181       -1.6427869603
	 CL         -7.3415150563       -2.0127615717        2.2199743666
	 H          -2.3541071028       -3.4034660266        3.8014083111
	 H           1.8668856901       -2.0168648891        2.2909842635
	 C           3.3251503524        1.7748377234       -4.0989617765
	 H           1.9370436662        1.0144419728       -5.4351186970
	 H           4.7046891563        3.1382289377       -4.8302355153
	 H           3.8636025584       -2.5676907642       -2.4545817120
	 H           5.3670033788       -0.5463595351       -4.6143108162
	            -0.0125697495        0.0001551097        0.0257024216
	             0.0036883400       -0.0024987015        0.0029323323
	             0.0001432099        0.0004101190       -0.0016260721
	             0.0003559751        0.0001485856       -0.0002293107
	             0.0001193362       -0.0003882422       -0.0022371925
	            -0.0002171916        0.0000733953        0.0002628846
	             0.0004603673       -0.0000983402        0.0002258041
	             0.0000949662       -0.0000596506        0.0002635200
	             0.0001673534        0.0000742303       -0.0001326131
	            -0.0001079407       -0.0005056761        0.0007354182
	            -0.0004704020        0.0009764620        0.0001933919
	            -0.0008971656        0.0015379791       -0.0005482053
	            -0.0001423226       -0.0001009160        0.0000187968
	             0.0003492058        0.0001968749       -0.0000407310
	            -0.0021620007       -0.0007994635        0.0008381472
	             0.0002227599        0.0000067132       -0.0000933215
	            -0.0002162383       -0.0003494450        0.0001934621
	            -0.0000485173        0.0000434840       -0.0000982534
	            -0.0000502191        0.0000334665       -0.0000356805
	             0.0017803623        0.0006747475       -0.0007663794
	             0.0000497409       -0.0000398300        0.0000271694
	             0.0001350593       -0.0000214344        0.0000080297
	             0.0057192383       -0.0051103774       -0.0045506538
	            -0.0011181133        0.0005863600        0.0006944039
	            -0.0014955448        0.0016600360       -0.0008342975
	             0.0013421486       -0.0019733618       -0.0035505238
	             0.0048673422        0.0053678754       -0.0173525473

	Previous optimization step data not found.  Starting new optimization.

	---Fragment 1 Intrafragment Coordinates---
	 - Coordinate -           - BOHR/RAD -       - ANG/DEG -
	 R(1,2)           =         3.111217	       1.646385
	 R(1,5)           =         2.919839	       1.545112
	 R(1,23)          =         3.363053	       1.779651
	 R(1,26)          =         2.074921	       1.098001
	 R(1,27)          =         2.231990	       1.181118
	 R(2,3)           =         2.918510	       1.544409
	 R(2,12)          =         2.850825	       1.508591
	 R(2,23)          =         2.717206	       1.437883
	 R(3,4)           =         2.912383	       1.541167
	 R(3,10)          =         2.079825	       1.100596
	 R(3,11)          =         2.088277	       1.105069
	 R(4,5)           =         2.907972	       1.538832
	 R(4,8)           =         2.087208	       1.104503
	 R(4,9)           =         2.081476	       1.101470
	 R(5,6)           =         2.081777	       1.101629
	 R(5,7)           =         2.085477	       1.103587
	 R(12,13)         =         2.663048	       1.409225
	 R(12,17)         =         2.657155	       1.406106
	 R(13,14)         =         2.644205	       1.399253
	 R(13,22)         =         2.070092	       1.095445
	 R(14,15)         =         2.658075	       1.406593
	 R(14,21)         =         2.065214	       1.092864
	 R(15,16)         =         2.651011	       1.402855
	 R(15,20)         =         3.272017	       1.731477
	 R(16,17)         =         2.650943	       1.402819
	 R(16,19)         =         2.065209	       1.092862
	 R(17,18)         =         2.071061	       1.095958
	 R(23,24)         =         2.071318	       1.096094
	 R(23,25)         =         2.072854	       1.096907
	 B(1,2,3)         =         1.822914	     104.445260
	 B(1,2,12)        =         2.001384	     114.670833
	 B(1,2,23)        =         1.223618	      70.108136
	 B(1,5,4)         =         1.849839	     105.987991
	 B(1,5,6)         =         1.900269	     108.877405
	 B(1,5,7)         =         1.919672	     109.989079
	 B(1,23,2)        =         1.055043	      60.449485
	 B(1,23,24)       =         1.921179	     110.075423
	 B(1,23,25)       =         1.943383	     111.347671
	 B(2,1,5)         =         1.832114	     104.972407
	 B(2,1,23)        =         0.862932	      49.442379
	 B(2,1,26)        =         1.914413	     109.687796
	 B(2,1,27)        =         1.986860	     113.838681
	 B(2,3,4)         =         1.846977	     105.824011
	 B(2,3,10)        =         1.907966	     109.318411
	 B(2,3,11)        =         1.919552	     109.982251
	 B(2,12,13)       =         2.103809	     120.539402
	 B(2,12,17)       =         2.094516	     120.006934
	 B(2,23,24)       =         2.084811	     119.450869
	 B(2,23,25)       =         2.117020	     121.296315
	 B(3,2,12)        =         2.073706	     118.814575
	 B(3,2,23)        =         2.074353	     118.851666
	 B(3,4,5)         =         1.819630	     104.257141
	 B(3,4,8)         =         1.920892	     110.058995
	 B(3,4,9)         =         1.965660	     112.624024
	 B(4,3,10)        =         1.966081	     112.648159
	 B(4,3,11)        =         1.941421	     111.235212
	 B(4,5,6)         =         1.985510	     113.761349
	 B(4,5,7)         =         1.933412	     110.776343
	 B(5,1,23)        =         2.105843	     120.655895
	 B(5,1,26)        =         2.142442	     122.752869
	 B(5,1,27)        =         1.833870	     105.072992
	 B(5,4,8)         =         1.921775	     110.109597
	 B(5,4,9)         =         1.960018	     112.300737
	 B(6,5,7)         =         1.874894	     107.423486
	 B(8,4,9)         =         1.876161	     107.496115
	 B(10,3,11)       =         1.881740	     107.815750
	 B(12,2,23)       =         2.056563	     117.832355
	 B(12,13,14)      =         2.102796	     120.481325
	 B(12,13,22)      =         2.105232	     120.620926
	 B(12,17,16)      =         2.103318	     120.511259
	 B(12,17,18)      =         2.105962	     120.662710
	 B(13,12,17)      =         2.083006	     119.347457
	 B(13,14,15)      =         2.087712	     119.617068
	 B(13,14,21)      =         2.103056	     120.496252
	 B(14,13,22)      =         2.075094	     118.894149
	 B(14,15,16)      =         2.102306	     120.453238
	 B(14,15,20)      =         2.090107	     119.754325
	 B(15,14,21)      =         2.092417	     119.886677
	 B(15,16,17)      =         2.087096	     119.581778
	 B(15,16,19)      =         2.094207	     119.989197
	 B(16,15,20)      =         2.090771	     119.792369
	 B(16,17,18)      =         2.073736	     118.816337
	 B(17,16,19)      =         2.101869	     120.428236
	 B(23,1,26)       =         2.034017	     116.540614
	 B(23,1,27)       =         1.125287	      64.474171
	 B(24,23,25)      =         2.048671	     117.380184
	 B(26,1,27)       =         1.757945	     100.722826
	 D(1,2,3,4)       =        -0.419724	     -24.048439
	 D(1,2,3,10)      =        -2.541445	    -145.614065
	 D(1,2,3,11)      =         1.678877	      96.192545
	 D(1,2,12,13)     =         1.044356	      59.837201
	 D(1,2,12,17)     =        -2.163055	    -123.933915
	 D(1,2,23,24)     =         1.704215	      97.644338
	 D(1,2,23,25)     =        -1.716373	     -98.340937
	 D(1,5,4,3)       =        -0.636964	     -36.495322
	 D(1,5,4,8)       =         1.423008	      81.532334
	 D(1,5,4,9)       =        -2.770152	    -158.718033
	 D(1,23,2,3)      =         1.674515	      95.942660
	 D(1,23,2,12)     =        -1.886958	    -108.114757
	 D(2,1,5,4)       =         0.367015	      21.028386
	 D(2,1,5,6)       =         2.509362	     143.775861
	 D(2,1,5,7)       =        -1.723770	     -98.764763
	 D(2,1,23,24)     =        -1.976391	    -113.238867
	 D(2,1,23,25)     =         2.003740	     114.805851
	 D(2,3,4,5)       =         0.659993	      37.814807
	 D(2,3,4,8)       =        -1.400584	     -80.247580
	 D(2,3,4,9)       =         2.789465	     159.824577
	 D(2,12,13,14)    =         3.094633	     177.309430
	 D(2,12,13,22)    =        -0.059139	      -3.388418
	 D(2,12,17,16)    =        -3.092387	    -177.180717
	 D(2,12,17,18)    =         0.029204	       1.673286
	 D(2,23,1,5)      =        -1.458596	     -83.571423
	 D(2,23,1,26)     =         1.639056	      93.910964
	 D(2,23,1,27)     =        -3.081373	    -176.549645
	 D(3,2,1,5)       =         0.032633	       1.869739
	 D(3,2,1,23)      =        -2.022729	    -115.893843
	 D(3,2,1,26)      =         2.365597	     135.538700
	 D(3,2,1,27)      =        -1.963320	    -112.489926
	 D(3,2,12,13)     =        -1.128057	     -64.632914
	 D(3,2,12,17)     =         1.947717	     111.595970
	 D(3,2,23,24)     =        -2.904455	    -166.413002
	 D(3,2,23,25)     =        -0.041858	      -2.398277
	 D(3,4,5,6)       =        -2.724299	    -156.090846
	 D(3,4,5,7)       =         1.444811	      82.781548
	 D(4,3,2,12)      =         1.837324	     105.270929
	 D(4,3,2,23)      =        -1.728297	     -99.024146
	 D(4,5,1,23)      =         1.264092	      72.427164
	 D(4,5,1,26)      =        -1.830757	    -104.894638
	 D(4,5,1,27)      =         2.467537	     141.379433
	 D(5,1,2,12)      =        -2.267035	    -129.891527
	 D(5,1,2,23)      =         2.055362	     117.763582
	 D(5,1,23,24)     =         2.848198	     163.189710
	 D(5,1,23,25)     =         0.545144	      31.234427
	 D(5,4,3,10)      =         2.743839	     157.210391
	 D(5,4,3,11)      =        -1.424266	     -81.604442
	 D(6,5,1,23)      =        -2.876745	    -164.825361
	 D(6,5,1,26)      =         0.311591	      17.852837
	 D(6,5,1,27)      =        -1.673301	     -95.873091
	 D(6,5,4,8)       =        -0.664328	     -38.063190
	 D(6,5,4,9)       =         1.425697	      81.686443
	 D(7,5,1,23)      =        -0.826692	     -47.365985
	 D(7,5,1,26)      =         2.361644	     135.312213
	 D(7,5,1,27)      =         0.376752	      21.586285
	 D(7,5,4,8)       =        -2.778404	    -159.190795
	 D(7,5,4,9)       =        -0.688378	     -39.441162
	 D(8,4,3,10)      =         0.683262	      39.148004
	 D(8,4,3,11)      =         2.798342	     160.333170
	 D(9,4,3,10)      =        -1.409874	     -80.779839
	 D(9,4,3,11)      =         0.705206	      40.405328
	 D(10,3,2,12)     =        -0.284396	     -16.294696
	 D(10,3,2,23)     =         2.433167	     139.410228
	 D(11,3,2,12)     =        -2.347260	    -134.488087
	 D(11,3,2,23)     =         0.370304	      21.216838
	 D(12,2,1,23)     =         1.960788	     112.344891
	 D(12,2,1,26)     =         0.065929	       3.777434
	 D(12,2,1,27)     =         2.020198	     115.748809
	 D(12,2,23,24)    =        -0.182743	     -10.470419
	 D(12,2,23,25)    =         2.679854	     153.544307
	 D(12,13,14,15)   =        -0.009456	      -0.541772
	 D(12,13,14,21)   =         3.131779	     179.437729
	 D(12,17,16,15)   =         0.004300	       0.246354
	 D(12,17,16,19)   =         3.140249	     179.923035
	 D(13,12,2,23)    =         2.433258	     139.415389
	 D(13,12,17,16)   =        -0.015827	      -0.906846
	 D(13,12,17,18)   =         3.105764	     177.947157
	 D(13,14,15,16)   =        -0.002279	      -0.130575
	 D(13,14,15,20)   =         3.140975	     179.964585
	 D(14,13,12,17)   =         0.018428	       1.055856
	 D(14,15,16,17)   =         0.004851	       0.277951
	 D(14,15,16,19)   =        -3.131124	    -179.400169
	 D(15,14,13,22)   =        -3.139077	    -179.855847
	 D(15,16,17,18)   =        -3.117656	    -178.628559
	 D(16,15,14,21)   =         3.139669	     179.889796
	 D(17,12,2,23)    =        -0.774153	     -44.355727
	 D(17,12,13,22)   =        -3.135344	    -179.641992
	 D(17,16,15,20)   =        -3.138403	    -179.817246
	 D(18,17,16,19)   =         0.018293	       1.048122
	 D(19,16,15,20)   =         0.008808	       0.504634
	 D(20,15,14,21)   =        -0.000263	      -0.015043
	 D(21,14,13,22)   =         0.002158	       0.123655
	 D(23,2,1,26)     =        -1.894860	    -108.567457
	 D(23,2,1,27)     =         0.059410	       3.403918
	 D(24,23,1,26)    =        -0.337336	     -19.327903
	 D(24,23,1,27)    =         1.225422	      70.211489
	 D(25,23,1,26)    =        -2.640390	    -151.283185
	 D(25,23,1,27)    =        -1.077633	     -61.743794
	 R(4,13)          =         6.939294	       3.672116

	Current energy   :      -923.6805166887

	Generating empirical Hessian (Schlegel '84) for each fragment.
	Taking PRFO optimization step.
	Maximizing along 1 lowest eigenvalue of Hessian.

 RFO min eigenvalues
 -0.002697 -0.000000 -0.000000 -0.000000 -0.000000 -0.000000 -0.000000 -0.000000
 -0.000000 -0.000000 -0.000000 -0.000000 -0.000000 -0.000000 -0.000000 -0.000000
 -0.000000 -0.000000 -0.000000 -0.000000 -0.000000 -0.000000 -0.000000 -0.000000
 -0.000000 -0.000000 -0.000000 -0.000000 -0.000000 -0.000000 -0.000000 -0.000000
 -0.000000 -0.000000 -0.000000 -0.000000 -0.000000 -0.000000 -0.000000 -0.000000
 -0.000000 -0.000000 -0.000000 -0.000000 -0.000000 -0.000000 -0.000000 -0.000000
 -0.000000 -0.000000 -0.000000 -0.000000 -0.000000 -0.000000 -0.000000 -0.000000
 -0.000000 -0.000000 -0.000000 -0.000000  0.000000  0.000000  0.000000  0.000000
  0.000000  0.000000  0.000000  0.000000  0.000000  0.000000  0.000000  0.000000
  0.000000  0.000000  0.000000  0.000000  0.000000  0.000000  0.000000  0.000000
  0.000000  0.000000  0.000000  0.000000  0.000000  0.000000  0.000000  0.000000
  0.000000  0.000000  0.000000  0.000000  0.000000  0.000000  0.000000  0.000000
  0.000000  0.000000  0.000000  0.000000  0.000000  0.000000  0.000000  0.000000
  0.000000  0.000000  0.000000  0.000000  0.000000  0.000000  0.000000  0.000000
  0.003875  0.004276  0.006265  0.011797  0.014698  0.016869  0.017206  0.017489
  0.017571  0.017586  0.017703  0.017735  0.017799  0.017924  0.022700  0.024409
  0.026005  0.027812  0.036227  0.038061  0.045945  0.050697  0.050963  0.056527
  0.057660  0.062399  0.066734  0.069252  0.071662  0.076950  0.079091  0.089024
  0.089751  0.093372  0.106888  0.111550  0.113623  0.152375  0.159969  0.159989
  0.159998  0.160000  0.164399  0.202665  0.219993  0.230580  0.240839  0.250000
  0.256597  0.262257  0.263460  0.273142  0.278795  0.304662  0.311825  0.323549
  0.331278  0.331890  0.332885  0.335026  0.335201  0.336164  0.339045  0.340265
  0.341178  0.341331  0.341909  0.344837  0.344840  0.405725  0.410441  0.443783
  0.445850  0.450506  0.455267

 RFO max eigenvalues
 -0.000000  0.000000
	|RFO target step|  :        0.2973386517
	RFO gradient       :       -0.0090691646
	RFO hessian        :        0.0278057506
	Projected Delta(E) :       -0.0013482564

	Back-transformation to cartesian coordinates...
	Successfully converged to displaced geometry.

	--- Internal Coordinate Step in ANG or DEG, aJ/ANG or AJ/DEG ---
	 ---------------------------------------------------------------------------
	   Coordinate                Previous        Force       Change         New 
	   ----------                --------       ------       ------       ------
	    1 R(1,2)          =      1.646385     0.019814     0.007911     1.654296
	    2 R(1,5)          =      1.545112     0.001404     0.001020     1.546132
	    3 R(1,23)         =      1.779651     0.012860     0.008695     1.788346
	    4 R(1,26)         =      1.098001    -0.009153    -0.001720     1.096281
	    5 R(1,27)         =      1.181118    -0.151627    -0.036938     1.144181
	    6 R(2,3)          =      1.544409     0.000072     0.000312     1.544721
	    7 R(2,12)         =      1.508591    -0.003904    -0.000227     1.508364
	    8 R(2,23)         =      1.437883    -0.015856    -0.004143     1.433740
	    9 R(3,4)          =      1.541167    -0.000835    -0.001092     1.540075
	   10 R(3,10)         =      1.100596    -0.003690    -0.000699     1.099896
	   11 R(3,11)         =      1.105069    -0.004238    -0.000815     1.104254
	   12 R(4,5)          =      1.538832     0.002467     0.000201     1.539034
	   13 R(4,8)          =      1.104503    -0.001585    -0.000304     1.104199
	   14 R(4,9)          =      1.101470    -0.000972    -0.000185     1.101285
	   15 R(5,6)          =      1.101629     0.000834     0.000159     1.101788
	   16 R(5,7)          =      1.103587    -0.000936    -0.000179     1.103408
	   17 R(12,13)        =      1.409225    -0.000669     0.000067     1.409292
	   18 R(12,17)        =      1.406106    -0.000243     0.000003     1.406109
	   19 R(13,14)        =      1.399253     0.001061     0.000154     1.399407
	   20 R(13,22)        =      1.095445    -0.001009    -0.000188     1.095257
	   21 R(14,15)        =      1.406593    -0.001675    -0.000278     1.406315
	   22 R(14,21)        =      1.092864    -0.000355    -0.000066     1.092799
	   23 R(15,16)        =      1.402855    -0.000701    -0.000143     1.402712
	   24 R(15,20)        =      1.731477     0.016874     0.003322     1.734799
	   25 R(16,17)        =      1.402819     0.000712     0.000095     1.402914
	   26 R(16,19)        =      1.092862    -0.000568    -0.000105     1.092757
	   27 R(17,18)        =      1.095958    -0.000814    -0.000152     1.095806
	   28 R(23,24)        =      1.096094    -0.000709    -0.000132     1.095962
	   29 R(23,25)        =      1.096907    -0.003221    -0.000603     1.096304
	   30 B(1,2,3)        =    104.445260    -0.000042    -0.290278   104.154981
	   31 B(1,2,12)       =    114.670833    -0.000001    -0.335243   114.335589
	   32 B(1,2,23)       =     70.108136     0.000030     0.255227    70.363364
	   33 B(1,5,4)        =    105.987991    -0.000015    -0.077712   105.910279
	   34 B(1,5,6)        =    108.877405     0.000004    -0.077652   108.799753
	   35 B(1,5,7)        =    109.989079    -0.000015    -0.130437   109.858642
	   36 B(1,23,2)       =     60.449485     0.000061     0.154120    60.603605
	   37 B(1,23,24)      =    110.075423    -0.000024    -0.480594   109.594829
	   38 B(1,23,25)      =    111.347671    -0.000102    -1.258782   110.088889
	   39 B(2,1,5)        =    104.972407    -0.000000    -0.230265   104.742143
	   40 B(2,1,23)       =     49.442379    -0.000091    -0.409347    49.033031
	   41 B(2,1,26)       =    109.687796    -0.000046    -2.170513   107.517283
	   42 B(2,1,27)       =    113.838681     0.000068     1.226615   115.065296
	   43 B(2,3,4)        =    105.824011     0.000025     0.033264   105.857275
	   44 B(2,3,10)       =    109.318411    -0.000019     0.119160   109.437571
	   45 B(2,3,11)       =    109.982251    -0.000003    -0.227306   109.754945
	   46 B(2,12,13)      =    120.539402     0.000029     0.243178   120.782580
	   47 B(2,12,17)      =    120.006934    -0.000042    -0.260680   119.746255
	   48 B(2,23,24)      =    119.450869     0.000002     0.541438   119.992307
	   49 B(2,23,25)      =    121.296315    -0.000024     0.050482   121.346796
	   50 B(3,2,12)       =    118.814575     0.000001     0.014449   118.829024
	   51 B(3,2,23)       =    118.851666    -0.000005    -0.031893   118.819773
	   52 B(3,4,5)        =    104.257141     0.000031    -0.283777   103.973364
	   53 B(3,4,8)        =    110.058995    -0.000007     0.067640   110.126635
	   54 B(3,4,9)        =    112.624024    -0.000016    -0.018432   112.605591
	   55 B(4,3,10)       =    112.648159     0.000016     0.451865   113.100024
	   56 B(4,3,11)       =    111.235212    -0.000029    -0.473901   110.761311
	   57 B(4,5,6)        =    113.761349     0.000006    -0.027184   113.734165
	   58 B(4,5,7)        =    110.776343     0.000020     0.235514   111.011856
	   59 B(5,1,23)       =    120.655895    -0.000011    -0.220551   120.435344
	   60 B(5,1,26)       =    122.752869     0.000001    -0.651284   122.101585
	   61 B(5,1,27)       =    105.072992     0.000012     1.903054   106.976045
	   62 B(5,4,8)        =    110.109597    -0.000001     0.127618   110.237215
	   63 B(5,4,9)        =    112.300737    -0.000014     0.055833   112.356570
	   64 B(6,5,7)        =    107.423486    -0.000000     0.063288   107.486774
	   65 B(8,4,9)        =    107.496115     0.000006     0.051707   107.547822
	   66 B(10,3,11)      =    107.815750     0.000010     0.085556   107.901306
	   67 B(12,2,23)      =    117.832355     0.000012     0.218396   118.050751
	   68 B(12,13,14)     =    120.481325    -0.000010     0.029426   120.510751
	   69 B(12,13,22)     =    120.620926     0.000010     0.027414   120.648340
	   70 B(12,17,16)     =    120.511259    -0.000007    -0.032163   120.479096
	   71 B(12,17,18)     =    120.662710    -0.000001    -0.022807   120.639903
	   72 B(13,12,17)     =    119.347457     0.000013     0.003296   119.350753
	   73 B(13,14,15)     =    119.617068    -0.000004    -0.053627   119.563441
	   74 B(13,14,21)     =    120.496252     0.000006     0.062078   120.558329
	   75 B(14,13,22)     =    118.894149     0.000000    -0.057124   118.837025
	   76 B(14,15,16)     =    120.453238     0.000016     0.041975   120.495213
	   77 B(14,15,20)     =    119.754325    -0.000024    -0.105177   119.649148
	   78 B(15,14,21)     =    119.886677    -0.000002    -0.008554   119.878123
	   79 B(15,16,17)     =    119.581778    -0.000008     0.009653   119.591431
	   80 B(15,16,19)     =    119.989197     0.000003     0.011011   120.000207
	   81 B(16,15,20)     =    119.792369     0.000008     0.063100   119.855468
	   82 B(16,17,18)     =    118.816337     0.000008     0.052647   118.868984
	   83 B(17,16,19)     =    120.428236     0.000005    -0.020661   120.407575
	   84 B(23,1,26)      =    116.540614     0.000003     0.571308   117.111923
	   85 B(23,1,27)      =     64.474171     0.000157     1.560236    66.034407
	   86 B(24,23,25)     =    117.380184     0.000041    -0.075241   117.304943
	   87 B(26,1,27)      =    100.722826    -0.000022     0.259280   100.982106
	   88 D(1,2,3,4)      =    -24.048439     0.000002    -0.553287   -24.601726
	   89 D(1,2,3,10)     =   -145.614065    -0.000003    -1.179055  -146.793120
	   90 D(1,2,3,11)     =     96.192545    -0.000003    -1.219773    94.972772
	   91 D(1,2,12,13)    =     59.837201    -0.000008    -1.209619    58.627582
	   92 D(1,2,12,17)    =   -123.933915    -0.000010    -1.453614  -125.387529
	   93 D(1,2,23,24)    =     97.644338    -0.000000    -0.794320    96.850018
	   94 D(1,2,23,25)    =    -98.340937     0.000020     1.538724   -96.802212
	   95 D(1,5,4,3)      =    -36.495322    -0.000002    -1.070644   -37.565966
	   96 D(1,5,4,8)      =     81.532334     0.000000    -1.086371    80.445963
	   97 D(1,5,4,9)      =   -158.718033    -0.000000    -0.896765  -159.614798
	   98 D(1,23,2,3)     =     95.942660    -0.000007    -0.201386    95.741274
	   99 D(1,23,2,12)    =   -108.114757    -0.000002     0.318073  -107.796683
	  100 D(2,1,5,4)      =     21.028386     0.000000     0.697928    21.726314
	  101 D(2,1,5,6)      =    143.775861     0.000000     0.576319   144.352181
	  102 D(2,1,5,7)      =    -98.764763    -0.000001     0.532613   -98.232149
	  103 D(2,1,23,24)    =   -113.238867    -0.000005    -0.870026  -114.108893
	  104 D(2,1,23,25)    =    114.805851     0.000006     0.644529   115.450380
	  105 D(2,3,4,5)      =     37.814807     0.000004     1.045613    38.860420
	  106 D(2,3,4,8)      =    -80.247580     0.000001     1.019789   -79.227792
	  107 D(2,3,4,9)      =    159.824577     0.000002     0.919541   160.744118
	  108 D(2,12,13,14)   =    177.309430    -0.000001    -0.132049   177.177382
	  109 D(2,12,13,22)   =     -3.388418    -0.000001    -0.159521    -3.547939
	  110 D(2,12,17,16)   =   -177.180717     0.000001     0.219951  -176.960766
	  111 D(2,12,17,18)   =      1.673286     0.000001     0.090702     1.763987
	  112 D(2,23,1,5)     =    -83.571423     0.000012     0.421218   -83.150206
	  113 D(2,23,1,26)    =     93.910964    -0.000025    -3.722915    90.188049
	  114 D(2,23,1,27)    =   -176.549645    -0.000013    -2.882601  -179.432246
	  115 D(3,2,1,5)      =      1.869739    -0.000002    -0.111778     1.757961
	  116 D(3,2,1,23)     =   -115.893843    -0.000002    -0.073683  -115.967527
	  117 D(3,2,1,26)     =    135.538700    -0.000010    -2.535305   133.003395
	  118 D(3,2,1,27)     =   -112.489926    -0.000014    -2.904855  -115.394781
	  119 D(3,2,12,13)    =    -64.632914     0.000006    -0.470623   -65.103537
	  120 D(3,2,12,17)    =    111.595970     0.000004    -0.714619   110.881352
	  121 D(3,2,23,24)    =   -166.413002    -0.000008    -0.995706  -167.408708
	  122 D(3,2,23,25)    =     -2.398277     0.000012     1.337338    -1.060938
	  123 D(3,4,5,6)      =   -156.090846    -0.000001    -0.907129  -156.997975
	  124 D(3,4,5,7)      =     82.781548    -0.000005    -1.146064    81.635485
	  125 D(4,3,2,12)     =    105.270929    -0.000007    -1.269476   104.001453
	  126 D(4,3,2,23)     =    -99.024146    -0.000001    -0.696779   -99.720925
	  127 D(4,5,1,23)     =     72.427164    -0.000024     0.123910    72.551074
	  128 D(4,5,1,26)     =   -104.894638     0.000015     4.447351  -100.447288
	  129 D(4,5,1,27)     =    141.379433     0.000019     2.918717   144.298150
	  130 D(5,1,2,12)     =   -129.891527     0.000005     0.360736  -129.530791
	  131 D(5,1,2,23)     =    117.763582    -0.000000    -0.038095   117.725488
	  132 D(5,1,23,24)    =    163.189710     0.000007    -0.448808   162.740902
	  133 D(5,1,23,25)    =     31.234427     0.000018     1.065747    32.300174
	  134 D(5,4,3,10)     =    157.210391     0.000004     1.468777   158.679168
	  135 D(5,4,3,11)     =    -81.604442     0.000005     1.553807   -80.050635
	  136 D(6,5,1,23)     =   -164.825361    -0.000024     0.002302  -164.823059
	  137 D(6,5,1,26)     =     17.852837     0.000015     4.325742    22.178579
	  138 D(6,5,1,27)     =    -95.873091     0.000019     2.797109   -93.075983
	  139 D(6,5,4,8)      =    -38.063190     0.000001    -0.922856   -38.986046
	  140 D(6,5,4,9)      =     81.686443     0.000000    -0.733250    80.953194
	  141 D(7,5,1,23)     =    -47.365985    -0.000026    -0.041404   -47.407389
	  142 D(7,5,1,26)     =    135.312213     0.000014     4.282036   139.594249
	  143 D(7,5,1,27)     =     21.586285     0.000018     2.753403    24.339687
	  144 D(7,5,4,8)      =   -159.190795    -0.000003    -1.161791  -160.352586
	  145 D(7,5,4,9)      =    -39.441162    -0.000004    -0.972185   -40.413347
	  146 D(8,4,3,10)     =     39.148004     0.000001     1.442953    40.590956
	  147 D(8,4,3,11)     =    160.333170     0.000002     1.527983   161.861153
	  148 D(9,4,3,10)     =    -80.779839     0.000003     1.342705   -79.437134
	  149 D(9,4,3,11)     =     40.405328     0.000003     1.427735    41.833063
	  150 D(10,3,2,12)    =    -16.294696    -0.000012    -1.895245   -18.189941
	  151 D(10,3,2,23)    =    139.410228    -0.000006    -1.322547   138.087681
	  152 D(11,3,2,12)    =   -134.488087    -0.000012    -1.935963  -136.424049
	  153 D(11,3,2,23)    =     21.216838    -0.000006    -1.363265    19.853573
	  154 D(12,2,1,23)    =    112.344891     0.000006     0.398831   112.743722
	  155 D(12,2,1,26)    =      3.777434    -0.000002    -2.062792     1.714643
	  156 D(12,2,1,27)    =    115.748809    -0.000006    -2.432341   113.316467
	  157 D(12,2,23,24)   =    -10.470419    -0.000002    -0.476246   -10.946665
	  158 D(12,2,23,25)   =    153.544307     0.000017     1.856798   155.401105
	  159 D(12,13,14,15)  =     -0.541772    -0.000001    -0.154099    -0.695872
	  160 D(12,13,14,21)  =    179.437729    -0.000000    -0.014765   179.422964
	  161 D(12,17,16,15)  =      0.246354    -0.000000    -0.062482     0.183873
	  162 D(12,17,16,19)  =    179.923035    -0.000000    -0.061856   179.861179
	  163 D(13,12,2,23)   =    139.415389     0.000001    -0.978751   138.436638
	  164 D(13,12,17,16)  =     -0.906846    -0.000000    -0.011267    -0.918113
	  165 D(13,12,17,18)  =    177.947157    -0.000001    -0.140517   177.806640
	  166 D(13,14,15,16)  =     -0.130575     0.000000     0.078844    -0.051731
	  167 D(13,14,15,20)  =    179.964585     0.000001     0.134183   180.098768
	  168 D(14,13,12,17)  =      1.055856     0.000001     0.120930     1.176787
	  169 D(14,15,16,17)  =      0.277951     0.000000     0.028880     0.306831
	  170 D(14,15,16,19)  =   -179.400169     0.000000     0.028361  -179.371808
	  171 D(15,14,13,22)  =   -179.855847    -0.000001    -0.127690  -179.983537
	  172 D(15,16,17,18)  =   -178.628559     0.000000     0.065338  -178.563221
	  173 D(16,15,14,21)  =    179.889796    -0.000000    -0.059544   179.830252
	  174 D(17,12,2,23)   =    -44.355727    -0.000001    -1.222747   -45.578474
	  175 D(17,12,13,22)  =   -179.641992     0.000001     0.093458  -179.548534
	  176 D(17,16,15,20)  =   -179.817246    -0.000000    -0.026732  -179.843979
	  177 D(18,17,16,19)  =      1.048122     0.000000     0.065964     1.114085
	  178 D(19,16,15,20)  =      0.504634    -0.000000    -0.027251     0.477382
	  179 D(20,15,14,21)  =     -0.015043    -0.000000    -0.004206    -0.019249
	  180 D(21,14,13,22)  =      0.123655     0.000000     0.011644     0.135299
	  181 D(23,2,1,26)    =   -108.567457    -0.000007    -2.461622  -111.029079
	  182 D(23,2,1,27)    =      3.403918    -0.000011    -2.831172     0.572746
	  183 D(24,23,1,26)   =    -19.327903    -0.000030    -4.592941   -23.920843
	  184 D(24,23,1,27)   =     70.211489    -0.000018    -3.752627    66.458862
	  185 D(25,23,1,26)   =   -151.283185    -0.000018    -3.078386  -154.361571
	  186 D(25,23,1,27)   =    -61.743794    -0.000007    -2.238072   -63.981866
	  187 R(4,13)         =      3.672116     0.001192    -0.013524     3.658593
	 ---------------------------------------------------------------------------
	Successfully symmetrized geometry.

  ==> Convergence Check <==

  Measures of convergence in internal coordinates in au.
  Criteria marked as inactive (o), active & met (*), and active & unmet ( ).
  --------------------------------------------------------------------------------------------- ~
   Step     Total Energy     Delta E     MAX Force     RMS Force      MAX Disp      RMS Disp    ~
  --------------------------------------------------------------------------------------------- ~
    Convergence Criteria    1.00e-06 *    3.00e-04 *             o    1.20e-03 *             o  ~
  --------------------------------------------------------------------------------------------- ~
      1    -923.68051669   -9.24e+02      1.84e-02      1.46e-03 o    8.02e-02      2.17e-02 o  ~
  ---------------------------------------------------------------------------------------------

	Writing optimization data to binary file.
	Structure for next step:
	Cartesian Geometry (in Angstrom)
	    C     2.5991980734  -0.3564913169  -1.2748217865
	    C     1.5538220620   0.8057397566  -0.7334323095
	    C     2.3762800368   1.5989932491   0.3060262816
	    C     3.4652371847   0.6322847831   0.8075007976
	    C     3.8922444236  -0.1345630053  -0.4567117833
	    H     4.3523571957  -1.1135393818  -0.2473375502
	    H     4.6150389538   0.4514745970  -1.0497014956
	    H     3.0412939281  -0.0644217833   1.5518979466
	    H     4.3085332570   1.1554918945   1.2849261280
	    H     1.7105614076   1.9521637066   1.1071888526
	    H     2.8295441164   2.4843592786  -0.1736136490
	    C     0.1940469333   0.2843888402  -0.3405352897
	    C     0.0599627126  -0.6974167535   0.6615539678
	    C    -1.2073966109  -1.1345186745   1.0629060264
	    C    -2.3538671437  -0.5766775252   0.4694927822
	    C    -2.2346544659   0.4124480712  -0.5179382970
	    C    -0.9604161558   0.8413668891  -0.9185784212
	    H    -0.8813159151   1.6315187525  -1.6736905178
	    H    -3.1310974699   0.8477134642  -0.9663255874
	   CL    -3.9261205869  -1.1150527647   0.9671870058
	    H    -1.3120467248  -1.9025442806   1.8332269601
	    H     0.9447472848  -1.1401421537   1.1313828063
	    C     1.8208829873   1.0094246516  -2.1272764065
	    H     1.1245466997   0.6237259553  -2.8805921033
	    H     2.5801657283   1.7250219431  -2.4638659804
	    H     2.0622965981  -1.3122743450  -1.2679813468
	    H     2.8848254647  -0.2748375051  -2.3797647962
			--------------------------
			 OPTKING Finished Execution 
			--------------------------

    Structure for next step:
    Molecular point group: c1
    Full point group: C1

    Geometry (in Angstrom), charge = 1, multiplicity = 1:

    C            2.606976077740    -0.347846983022    -1.227364003581
    C            1.561600062283     0.814384094961    -0.685974524424
    C            2.384058040227     1.607637590644     0.353484070790
    C            3.473015192481     0.640929120807     0.854958588738
    C            3.900022432990    -0.125918670610    -0.409253997199
    H            4.360135206930    -1.104895050953    -0.199879763190
    H            4.622816966117     0.460118934017    -1.002243711768
    H            3.049071934197    -0.055777448305     1.599355740611
    H            4.316311268082     1.164136234283     1.332383921023
    H            1.718339408449     1.960808049540     1.154646644895
    H            2.837322121634     2.493003623577    -0.126155861772
    C            0.201824928213     0.293033176507    -0.293077503078
    C            0.067740706938    -0.688772421038     0.709011758339
    C           -1.199618621524    -1.125874343685     1.110363818518
    C           -2.346089158819    -0.568033192194     0.516950571958
    C           -2.226876480542     0.421092408069    -0.470480511129
    C           -0.952638165434     0.850011227613    -0.871120636880
    H           -0.873537924417     1.640163094119    -1.626232736421
    H           -3.123319488110     0.856357802813    -0.918867803271
    CL          -3.918342608154    -1.106408433813     1.014644797565
    H           -1.304268735872    -1.893899952873     1.880684755280
    H            0.952525282682    -1.131497822969     1.178840598667
    C            1.828660988549     1.018068990822    -2.079818626873
    H            1.132324698283     0.632370293029    -2.833134326644
    H            2.587943732566     1.733666285135    -2.416408202136
    H            2.070074600353    -1.303630014935    -1.220523563822
    H            2.892603470209    -0.266193170923    -2.332307017594


Scratch directory: /scratch1/maxbuskirk/
gradient() will perform analytic gradient computation.

*** tstart() called on skylm003.palmetto.clemson.edu
*** at Thu Feb 17 23:33:23 2022

   => Loading Basis Set <=

    Name: CC-PVDZ
    Role: ORBITAL
    Keyword: BASIS
    atoms 1-5, 12-17, 23            entry C          line   138 file /home/maxbuskirk/.conda/envs/psifour/share/psi4/basis/cc-pvdz.gbs 
    atoms 6-11, 18-19, 21-22, 24-27 entry H          line    22 file /home/maxbuskirk/.conda/envs/psifour/share/psi4/basis/cc-pvdz.gbs 
    atoms 20                        entry CL         line   658 file /home/maxbuskirk/.conda/envs/psifour/share/psi4/basis/cc-pvdz.gbs 


         ---------------------------------------------------------
                                   SCF
               by Justin Turney, Rob Parrish, Andy Simmonett
                          and Daniel G. A. Smith
                              RHF Reference
                        1 Threads,  59127 MiB Core
         ---------------------------------------------------------

  ==> Geometry <==

    Molecular point group: c1
    Full point group: C1

    Geometry (in Angstrom), charge = 1, multiplicity = 1:

       Center              X                  Y                   Z               Mass       
    ------------   -----------------  -----------------  -----------------  -----------------
         C            2.606976077740    -0.347846983022    -1.227364003581    12.000000000000
         C            1.561600062283     0.814384094961    -0.685974524424    12.000000000000
         C            2.384058040227     1.607637590644     0.353484070790    12.000000000000
         C            3.473015192481     0.640929120807     0.854958588738    12.000000000000
         C            3.900022432990    -0.125918670610    -0.409253997199    12.000000000000
         H            4.360135206930    -1.104895050953    -0.199879763190     1.007825032230
         H            4.622816966117     0.460118934017    -1.002243711768     1.007825032230
         H            3.049071934197    -0.055777448305     1.599355740611     1.007825032230
         H            4.316311268082     1.164136234283     1.332383921023     1.007825032230
         H            1.718339408449     1.960808049540     1.154646644895     1.007825032230
         H            2.837322121634     2.493003623577    -0.126155861772     1.007825032230
         C            0.201824928213     0.293033176507    -0.293077503078    12.000000000000
         C            0.067740706938    -0.688772421038     0.709011758339    12.000000000000
         C           -1.199618621524    -1.125874343685     1.110363818518    12.000000000000
         C           -2.346089158819    -0.568033192194     0.516950571958    12.000000000000
         C           -2.226876480542     0.421092408069    -0.470480511129    12.000000000000
         C           -0.952638165434     0.850011227613    -0.871120636880    12.000000000000
         H           -0.873537924417     1.640163094119    -1.626232736421     1.007825032230
         H           -3.123319488110     0.856357802813    -0.918867803271     1.007825032230
         CL          -3.918342608154    -1.106408433813     1.014644797565    34.968852682000
         H           -1.304268735872    -1.893899952873     1.880684755280     1.007825032230
         H            0.952525282682    -1.131497822969     1.178840598667     1.007825032230
         C            1.828660988549     1.018068990822    -2.079818626873    12.000000000000
         H            1.132324698283     0.632370293029    -2.833134326644     1.007825032230
         H            2.587943732566     1.733666285135    -2.416408202136     1.007825032230
         H            2.070074600353    -1.303630014935    -1.220523563822     1.007825032230
         H            2.892603470209    -0.266193170923    -2.332307017594     1.007825032230

  Running in c1 symmetry.

  Rotational constants: A =      0.06573  B =      0.01100  C =      0.01030 [cm^-1]
  Rotational constants: A =   1970.41166  B =    329.87226  C =    308.86111 [MHz]
  Nuclear repulsion =  845.732978022347993

  Charge       = 1
  Multiplicity = 1
  Electrons    = 102
  Nalpha       = 51
  Nbeta        = 51

  ==> Algorithm <==

  SCF Algorithm Type is DF.
  DIIS enabled.
  MOM disabled.
  Fractional occupation disabled.
  Guess Type is READ.
  Energy threshold   = 1.00e-10
  Density threshold  = 1.00e-10
  Integral threshold = 1.00e-12

  ==> Primary Basis <==

  Basis Set: CC-PVDZ
    Blend: CC-PVDZ
    Number of shells: 122
    Number of basis functions: 256
    Number of Cartesian functions: 269
    Spherical Harmonics?: true
    Max angular momentum: 2

   => Loading Basis Set <=

    Name: (CC-PVDZ AUX)
    Role: JKFIT
    Keyword: DF_BASIS_SCF
    atoms 1-5, 12-17, 23            entry C          line   121 file /home/maxbuskirk/.conda/envs/psifour/share/psi4/basis/cc-pvdz-jkfit.gbs 
    atoms 6-11, 18-19, 21-22, 24-27 entry H          line    51 file /home/maxbuskirk/.conda/envs/psifour/share/psi4/basis/cc-pvdz-jkfit.gbs 
    atoms 20                        entry CL         line   667 file /home/maxbuskirk/.conda/envs/psifour/share/psi4/basis/cc-pvdz-jkfit.gbs 

   => Loading Basis Set <=

    Name: CC-PVDZ
    Role: ORBITAL
    Keyword: BASIS
    atoms 1-5, 12-17, 23            entry C          line   138 file /home/maxbuskirk/.conda/envs/psifour/share/psi4/basis/cc-pvdz.gbs 
    atoms 6-11, 18-19, 21-22, 24-27 entry H          line    22 file /home/maxbuskirk/.conda/envs/psifour/share/psi4/basis/cc-pvdz.gbs 
    atoms 20                        entry CL         line   658 file /home/maxbuskirk/.conda/envs/psifour/share/psi4/basis/cc-pvdz.gbs 

  Reading orbitals from file /scratch1/maxbuskirk/1Cl.mol.95242.180.npy, no projection.

  ==> Integral Setup <==

  DFHelper Memory: AOs need 0.579 GiB; user supplied 43.306 GiB. Using in-core AOs.

  ==> MemDFJK: Density-Fitted J/K Matrices <==

    J tasked:                   Yes
    K tasked:                   Yes
    wK tasked:                   No
    OpenMP threads:               1
    Memory [MiB]:             44345
    Algorithm:                 Core
    Schwarz Cutoff:           1E-12
    Mask sparsity (%):      10.5225
[...]
         C           -0.944556922001     0.894379398187    -0.793853294494    12.000000000000
         H           -0.843471239982     1.735808403149    -1.489155506136     1.007825032230
         H           -3.116289746376     0.958443360355    -0.836838571466     1.007825032230
         CL          -3.960611278422    -1.125856636030     0.940424752561    34.968852682000
         H           -1.367379741292    -2.048108268301     1.735019146416     1.007825032230
         H            0.913891553649    -1.288800113847     1.086630989894     1.007825032230
         C            1.864109782791     1.075071345538    -2.019686773555    12.000000000000
         H            1.181410356880     0.727572202626    -2.804473679725     1.007825032230
         H            2.554883412751     1.890925249921    -2.270074019014     1.007825032230
         H            2.138190353777    -1.259963631465    -1.442419978595     1.007825032230
         H            2.871263595362     0.093422717964    -2.258644023336     1.007825032230

  Running in c1 symmetry.

  Rotational constants: A =      0.06692  B =      0.01075  C =      0.01016 [cm^-1]
  Rotational constants: A =   2006.26619  B =    322.13197  C =    304.56148 [MHz]
  Nuclear repulsion =  842.710626012097009

  Charge       = 1
  Multiplicity = 1
  Electrons    = 102
  Nalpha       = 51
  Nbeta        = 51

  ==> Algorithm <==

  SCF Algorithm Type is DF.
  DIIS enabled.
  MOM disabled.
  Fractional occupation disabled.
  Guess Type is READ.
  Energy threshold   = 1.00e-10
  Density threshold  = 1.00e-10
  Integral threshold = 1.00e-12

  ==> Primary Basis <==

  Basis Set: CC-PVDZ
    Blend: CC-PVDZ
    Number of shells: 122
    Number of basis functions: 256
    Number of Cartesian functions: 269
    Spherical Harmonics?: true
    Max angular momentum: 2

   => Loading Basis Set <=

    Name: (CC-PVDZ AUX)
    Role: JKFIT
    Keyword: DF_BASIS_SCF
    atoms 1-5, 12-17, 23            entry C          line   121 file /home/maxbuskirk/.conda/envs/psifour/share/psi4/basis/cc-pvdz-jkfit.gbs 
    atoms 6-11, 18-19, 21-22, 24-27 entry H          line    51 file /home/maxbuskirk/.conda/envs/psifour/share/psi4/basis/cc-pvdz-jkfit.gbs 
    atoms 20                        entry CL         line   667 file /home/maxbuskirk/.conda/envs/psifour/share/psi4/basis/cc-pvdz-jkfit.gbs 

   => Loading Basis Set <=

    Name: CC-PVDZ
    Role: ORBITAL
    Keyword: BASIS
    atoms 1-5, 12-17, 23            entry C          line   138 file /home/maxbuskirk/.conda/envs/psifour/share/psi4/basis/cc-pvdz.gbs 
    atoms 6-11, 18-19, 21-22, 24-27 entry H          line    22 file /home/maxbuskirk/.conda/envs/psifour/share/psi4/basis/cc-pvdz.gbs 
    atoms 20                        entry CL         line   658 file /home/maxbuskirk/.conda/envs/psifour/share/psi4/basis/cc-pvdz.gbs 

  Reading orbitals from file /scratch1/maxbuskirk/1Cl.mol.95242.180.npy, no projection.

  ==> Integral Setup <==

  DFHelper Memory: AOs need 0.578 GiB; user supplied 43.306 GiB. Using in-core AOs.

  ==> MemDFJK: Density-Fitted J/K Matrices <==

    J tasked:                   Yes
    K tasked:                   Yes
    wK tasked:                   No
    OpenMP threads:               1
    Memory [MiB]:             44345
    Algorithm:                 Core
    Schwarz Cutoff:           1E-12
    Mask sparsity (%):      10.8215
    Fitting Condition:        1E-10

   => Auxiliary Basis Set <=

  Basis Set: (CC-PVDZ AUX)
    Blend: CC-PVDZ-JKFIT
    Number of shells: 450
    Number of basis functions: 1274
    Number of Cartesian functions: 1452
    Spherical Harmonics?: true
    Max angular momentum: 3

  Minimum eigenvalue in the overlap matrix is 3.0872833739E-04.
  Reciprocal condition number of the overlap matrix is 4.3869663636E-05.
    Using symmetric orthogonalization.

  ==> Pre-Iterations <==

  SCF Guess: Orbitals guess was supplied from a previous computation.

   -------------------------------------------------------
    Irrep   Nso     Nmo     Nalpha   Nbeta   Ndocc  Nsocc
   -------------------------------------------------------
     A        256     256      51      51      51       0
   -------------------------------------------------------
    Total     256     256      51      51      51       0
   -------------------------------------------------------

  ==> Iterations <==

                           Total Energy        Delta E     RMS |[F,P]|

   @DF-RHF iter   0:  -921.78075499911529   -9.21781e+02   4.20468e-04 
   @DF-RHF iter   1:  -921.79622369922390   -1.54687e-02   8.96084e-05 DIIS
   @DF-RHF iter   2:  -921.79672651217993   -5.02813e-04   3.54469e-05 DIIS
   @DF-RHF iter   3:  -921.79680553406126   -7.90219e-05   1.80505e-05 DIIS
   @DF-RHF iter   4:  -921.79682536104428   -1.98270e-05   4.17896e-06 DIIS
   @DF-RHF iter   5:  -921.79682659050013   -1.22946e-06   2.12162e-06 DIIS
   @DF-RHF iter   6:  -921.79682696527937   -3.74779e-07   5.38073e-07 DIIS
   @DF-RHF iter   7:  -921.79682699593945   -3.06601e-08   1.89500e-07 DIIS
   @DF-RHF iter   8:  -921.79682699928753   -3.34808e-09   7.48875e-08 DIIS
   @DF-RHF iter   9:  -921.79682699979162   -5.04087e-10   2.53705e-08 DIIS
   @DF-RHF iter  10:  -921.79682699988405   -9.24274e-11   1.20933e-08 DIIS
   @DF-RHF iter  11:  -921.79682699990042   -1.63709e-11   5.44940e-09 DIIS
   @DF-RHF iter  12:  -921.79682699990747   -7.04858e-12   2.53568e-09 DIIS
   @DF-RHF iter  13:  -921.79682699990724    2.27374e-13   1.05703e-09 DIIS
   @DF-RHF iter  14:  -921.79682699990872   -1.47793e-12   3.21403e-10 DIIS
   @DF-RHF iter  15:  -921.79682699990735    1.36424e-12   1.04670e-10 DIIS
   @DF-RHF iter  16:  -921.79682699990803   -6.82121e-13   4.92744e-11 DIIS
  Energy and wave function converged.


  ==> Post-Iterations <==

    Orbital Energies [Eh]
    ---------------------

    Doubly Occupied:                                                      

       1A   -104.934954     2A    -11.526603     3A    -11.487937  
       4A    -11.458231     5A    -11.427374     6A    -11.418339  
       7A    -11.401114     8A    -11.400131     9A    -11.390962  
      10A    -11.389946    11A    -11.389030    12A    -11.379868  
      13A    -11.379190    14A    -10.661703    15A     -8.129331  
      16A     -8.125701    17A     -8.125645    18A     -1.398490  
      19A     -1.305400    20A     -1.240775    21A     -1.219321  
      22A     -1.168406    23A     -1.154789    24A     -1.120781  
      25A     -1.057438    26A     -0.992101    27A     -0.971039  
      28A     -0.963753    29A     -0.930756    30A     -0.878540  
      31A     -0.823945    32A     -0.810376    33A     -0.794457  
      34A     -0.778432    35A     -0.771925    36A     -0.763300  
      37A     -0.734565    38A     -0.723143    39A     -0.692645  
      40A     -0.685998    41A     -0.672031    42A     -0.656940  
      43A     -0.650282    44A     -0.646982    45A     -0.634887  
      46A     -0.626191    47A     -0.614390    48A     -0.575207  
      49A     -0.552781    50A     -0.473380    51A     -0.451981  

    Virtual:                                                              

      52A     -0.043685    53A     -0.015020    54A     -0.008919  
      55A      0.000942    56A      0.021271    57A      0.041012  
      58A      0.043358    59A      0.067870    60A      0.082842  
      61A      0.092026    62A      0.099388    63A      0.111711  
      64A      0.116743    65A      0.130250    66A      0.131940  
      67A      0.142176    68A      0.150694    69A      0.164975  
      70A      0.172745    71A      0.185593    72A      0.209233  
      73A      0.212002    74A      0.233275    75A      0.260143  
      76A      0.298860    77A      0.311414    78A      0.328414  
      79A      0.334551    80A      0.336535    81A      0.363346  
      82A      0.382741    83A      0.421934    84A      0.449216  
      85A      0.461010    86A      0.480989    87A      0.496394  
      88A      0.499913    89A      0.505990    90A      0.514374  
      91A      0.526600    92A      0.536926    93A      0.556714  
      94A      0.561258    95A      0.562138    96A      0.583846  
      97A      0.589887    98A      0.598874    99A      0.601914  
     100A      0.608594   101A      0.614435   102A      0.621246  
     103A      0.631174   104A      0.642117   105A      0.654318  
     106A      0.657806   107A      0.663655   108A      0.669089  
     109A      0.677080   110A      0.684104   111A      0.689415  
     112A      0.698823   113A      0.708539   114A      0.717111  
     115A      0.722754   116A      0.736641   117A      0.739717  
     118A      0.746282   119A      0.752461   120A      0.759626  
     121A      0.774334   122A      0.779174   123A      0.782704  
     124A      0.790777   125A      0.794638   126A      0.803766  
     127A      0.827794   128A      0.842068   129A      0.868658  
     130A      0.869955   131A      0.883954   132A      0.901600  
     133A      0.958395   134A      0.970339   135A      0.979602  
     136A      1.009094   137A      1.016207   138A      1.019048  
     139A      1.033438   140A      1.067070   141A      1.079973  
     142A      1.090390   143A      1.098120   144A      1.109404  
     145A      1.130343   146A      1.149589   147A      1.153522  
     148A      1.190383   149A      1.193973   150A      1.214108  
     151A      1.225988   152A      1.236571   153A      1.272772  
     154A      1.282121   155A      1.312683   156A      1.339172  
     157A      1.342871   158A      1.359247   159A      1.362430  
     160A      1.364110   161A      1.403747   162A      1.410858  
     163A      1.442119   164A      1.478358   165A      1.490363  
     166A      1.515015   167A      1.538243   168A      1.556971  
     169A      1.588558   170A      1.591527   171A      1.596258  
     172A      1.615437   173A      1.635480   174A      1.647086  
     175A      1.652939   176A      1.671630   177A      1.679681  
     178A      1.684936   179A      1.689240   180A      1.703608  
     181A      1.714908   182A      1.728907   183A      1.748168  
     184A      1.757636   185A      1.760003   186A      1.763321  
     187A      1.780347   188A      1.791472   189A      1.803451  
     190A      1.811982   191A      1.824676   192A      1.836151  
     193A      1.842494   194A      1.855559   195A      1.868667  
     196A      1.878251   197A      1.895794   198A      1.903109  
     199A      1.917295   200A      1.920260   201A      1.923501  
     202A      1.942225   203A      1.953149   204A      1.957119  
     205A      1.984651   206A      1.998667   207A      2.019580  
     208A      2.029226   209A      2.043076   210A      2.050918  
     211A      2.069189   212A      2.076590   213A      2.097039  
     214A      2.100222   215A      2.118443   216A      2.129716  
     217A      2.134518   218A      2.181019   219A      2.183190  
     220A      2.199544   221A      2.219180   222A      2.231767  
     223A      2.240107   224A      2.256322   225A      2.278335  
     226A      2.290123   227A      2.300468   228A      2.326378  
     229A      2.327778   230A      2.382046   231A      2.400138  
     232A      2.409931   233A      2.452695   234A      2.462675  
     235A      2.496753   236A      2.538147   237A      2.562906  
     238A      2.586474   239A      2.589300   240A      2.597074  
     241A      2.610147   242A      2.632476   243A      2.648838  
     244A      2.704037   245A      2.710373   246A      2.744060  
     247A      2.765145   248A      2.790650   249A      2.807701  
     250A      2.862395   251A      2.885513   252A      2.931039  
     253A      2.946691   254A      3.013259   255A      3.107758  
     256A      3.629841  

    Final Occupation by Irrep:
              A 
    DOCC [    51 ]

  @DF-RHF Final Energy:  -921.79682699990803

   => Energetics <=

    Nuclear Repulsion Energy =            842.7106260120970092
    One-Electron Energy =               -2917.8919316122228338
    Two-Electron Energy =                1153.3844786002175624
    Total Energy =                       -921.7968269999080348

Computation Completed


Properties will be evaluated at   0.000000,   0.000000,   0.000000 [a0]

Properties computed using the SCF density matrix

  Nuclear Dipole Moment: [e a0]
     X:    27.5830      Y:     6.5073      Z:    -5.8393

  Electronic Dipole Moment: [e a0]
     X:   -23.4104      Y:    -5.5798      Z:     3.6564

  Dipole Moment: [e a0]
     X:     4.1726      Y:     0.9276      Z:    -2.1829     Total:     4.7996

  Dipole Moment: [D]
     X:    10.6057      Y:     2.3576      Z:    -5.5484     Total:    12.1993


*** tstop() called on skylm003.palmetto.clemson.edu at Sun Feb 20 00:17:03 2022
Module time:
	user time   =      17.72 seconds =       0.30 minutes
	system time =       0.82 seconds =       0.01 minutes
	total time  =         20 seconds =       0.33 minutes
Total time:
	user time   =  137246.42 seconds =    2287.44 minutes
	system time =   21688.76 seconds =     361.48 minutes
	total time  =     204887 seconds =    3414.78 minutes
 MINTS: Wrapper to libmints.
   by Justin Turney

   Calculation information:
      Number of threads:                 1
      Number of atoms:                  27
      Number of AO shells:             122
      Number of SO shells:             122
      Number of primitives:            384
      Number of atomic orbitals:       269
      Number of basis functions:       256

      Number of irreps:                  1
      Integral cutoff                 1.00e-12
      Number of functions per irrep: [ 256 ]

 OEINTS: Overlap, kinetic, potential, dipole, and quadrupole integrals
         stored in file 35.

      Computing two-electron integrals...done
      Computed 342152810 non-zero two-electron integrals.
        Stored in file 33.


*** tstart() called on skylm003.palmetto.clemson.edu
*** at Sun Feb 20 00:22:51 2022


	Wfn Parameters:
	--------------------
	Wavefunction         = CCSD
	Number of irreps     = 1
	Number of MOs        = 256
	Number of active MOs = 256
	AO-Basis             = NONE
	Semicanonical        = false
	Reference            = RHF
	Print Level          = 1

	IRREP	# MOs	# FZDC	# DOCC	# SOCC	# VIRT	# FZVR
	-----	-----	------	------	------	------	------
	 A	   256	    0	    51	    0	    205	    0
	Transforming integrals...
	IWL integrals will be deleted.
	(OO|OO)...
	Presorting SO-basis two-electron integrals.
	Sorting File: SO Ints (nn|nn) nbuckets = 1
	Constructing frozen core operators
	Starting first half-transformation.
	Sorting half-transformed integrals.
	First half integral transformation complete.
	Starting second half-transformation.
	Two-electron integral transformation complete.
	(OO|OV)...
	Starting second half-transformation.
	Two-electron integral transformation complete.
	(OO|VV)...
	Starting second half-transformation.
	Two-electron integral transformation complete.
	(OV|OO)...
	Starting first half-transformation.
	Sorting half-transformed integrals.
	First half integral transformation complete.
	Starting second half-transformation.
	Two-electron integral transformation complete.
	(OV|OV)...
	Starting second half-transformation.
	Two-electron integral transformation complete.
	(OV|VV)...
	Starting second half-transformation.
	Two-electron integral transformation complete.
	(VV|OO)...
	Starting first half-transformation.
	Sorting half-transformed integrals.
	First half integral transformation complete.
	Starting second half-transformation.
	Two-electron integral transformation complete.
	(VV|OV)...
	Starting second half-transformation.
	Two-electron integral transformation complete.
	(VV|VV)...
	Starting second half-transformation.
	Two-electron integral transformation complete.
	Frozen core energy     =      0.00000000000000

	Size of irrep 0 of <ab|cd> integrals:   1766.101 (MW) /  14128.805 (MB)
	Total:                                  1766.101 (MW) /  14128.805 (MB)

	Size of irrep 0 of <ia|bc> integrals:    439.371 (MW) /   3514.971 (MB)
	Total:                                   439.371 (MW) /   3514.971 (MB)

	Size of irrep 0 of tijab amplitudes:     109.307 (MW) /    874.456 (MB)
	Total:                                   109.307 (MW) /    874.456 (MB)

	Nuclear Rep. energy          =    842.71062601209701
	SCF energy                   =   -921.79682699990803
	One-electron energy          =  -2917.89193165543702
	Two-electron energy          =   1153.38374760988040
	Reference energy             =   -921.79755803345961

*** tstop() called on skylm003.palmetto.clemson.edu at Sun Feb 20 00:34:22 2022
Module time:
	user time   =     283.34 seconds =       4.72 minutes
	system time =     127.46 seconds =       2.12 minutes
	total time  =        691 seconds =      11.52 minutes
Total time:
	user time   =  137782.34 seconds =    2296.37 minutes
	system time =   21824.60 seconds =     363.74 minutes
	total time  =     205926 seconds =    3432.10 minutes
            **************************
            *                        *
            *        CCENERGY        *
            *                        *
            **************************

    Nuclear Rep. energy (wfn)     =  842.710626012097009
    SCF energy          (wfn)     = -921.796826999908035
    Reference energy    (file100) = -921.797558033459609

    Input parameters:
    -----------------
    Wave function   =     CCSD
    Reference wfn   =     RHF
    Brueckner       =     No
    Memory (Mbytes) =     62000.0
    Maxiter         =     50
    R_Convergence   =     1.0e-07
    E_Convergence   =     1.0e-08
    Restart         =     Yes
    DIIS            =     Yes
    AO Basis        =     NONE
    ABCD            =     NEW
    Cache Level     =     2
    Cache Type      =     LOW
    Print Level     =     1
    Num. of threads =     1
    # Amps to Print =     10
    Print MP2 Amps? =     No
    Analyze T2 Amps =     No
    Print Pair Ener =     No
    Local CC        =     No
    SCS-MP2         =     False
    SCSN-MP2        =     False
    SCS-CCSD        =     False

    Using old T1 amplitudes.
    Using old T2 amplitudes.

MP2 correlation energy -1.7851921454532860
                Solving CC Amplitude Equations
                ------------------------------
  Iter             Energy              RMS        T1Diag      D1Diag    New D1Diag    D2Diag
  ----     ---------------------    ---------   ----------  ----------  ----------   --------
     0        -0.879432143875421    0.000e+00    0.008430    0.036998    0.036998    0.188044
     1        -1.821262700205809    6.956e-01    0.007702    0.028954    0.028954    0.190047
     2        -1.848856795418662    1.230e-01    0.008315    0.035816    0.035816    0.183032
     3        -1.871467764223974    3.775e-02    0.008162    0.033930    0.033930    0.186107
     4        -1.875559507195405    1.228e-02    0.008299    0.034725    0.034725    0.187015
     5        -1.876075820252136    4.223e-03    0.008358    0.034988    0.034988    0.187491
     6        -1.876296657918097    1.589e-03    0.008369    0.035047    0.035047    0.187814
     7        -1.876384323825193    6.304e-04    0.008373    0.035087    0.035087    0.187962
     8        -1.876396115471305    2.652e-04    0.008374    0.035101    0.035101    0.188026
     9        -1.876392117268441    1.012e-04    0.008374    0.035100    0.035100    0.188048
    10        -1.876393470713175    3.973e-05    0.008374    0.035097    0.035097    0.188056
    11        -1.876393630691455    1.665e-05    0.008374    0.035095    0.035095    0.188057
    12        -1.876392960000300    7.674e-06    0.008374    0.035093    0.035093    0.188056
    13        -1.876392883072123    3.591e-06    0.008374    0.035092    0.035092    0.188056
    14        -1.876392745712500    1.549e-06    0.008374    0.035092    0.035092    0.188056
