
    -----------------------------------------------------------------------
          Psi4: An Open-Source Ab Initio Electronic Structure Package
                               Psi4 1.4 release

                         Git: Rev {HEAD} 9485035 


    D. G. A. Smith, L. A. Burns, A. C. Simmonett, R. M. Parrish,
    M. C. Schieber, R. Galvelis, P. Kraus, H. Kruse, R. Di Remigio,
    A. Alenaizan, A. M. James, S. Lehtola, J. P. Misiewicz, M. Scheurer,
    R. A. Shaw, J. B. Schriber, Y. Xie, Z. L. Glick, D. A. Sirianni,
    J. S. O'Brien, J. M. Waldrop, A. Kumar, E. G. Hohenstein,
    B. P. Pritchard, B. R. Brooks, H. F. Schaefer III, A. Yu. Sokolov,
    K. Patkowski, A. E. DePrince III, U. Bozkaya, R. A. King,
    F. A. Evangelista, J. M. Turney, T. D. Crawford, C. D. Sherrill,
    J. Chem. Phys. 152(18) 184108 (2020). https://doi.org/10.1063/5.0006002

                            Additional Code Authors
    E. T. Seidl, C. L. Janssen, E. F. Valeev, M. L. Leininger,
    J. F. Gonthier, R. M. Richard, H. R. McAlexander, M. Saitow, X. Wang,
    P. Verma, and M. H. Lechner

             Previous Authors, Complete List of Code Contributors,
                       and Citations for Specific Modules
    https://github.com/psi4/psi4/blob/master/codemeta.json
    https://github.com/psi4/psi4/graphs/contributors
    http://psicode.org/psi4manual/master/introduction.html#citing-psifour

    -----------------------------------------------------------------------


    Psi4 started on: Saturday, 11 December 2021 02:56AM

    Process ID: 1825719
    Host:       skystd21.palmetto.clemson.edu
    PSIDATADIR: /home/maxbuskirk/.conda/envs/psifour/share/psi4
    Memory:     500.0 MiB
    Threads:    1
    
  ==> Input File <==

--------------------------------------------------------------------------
memory 32 GB

molecule mol {
1 1
 C     1.263455    -0.830095     0.301389
 C     0.000000    -0.000000     0.000000
 C    -0.828100    -0.881905    -0.953535
 C    -0.472970    -0.770684    -2.420947
 C     0.155456    -1.870251    -1.587045
 C     1.542853    -1.604898    -1.002898
 C    -2.201676    -1.295126    -0.539087
 C    -2.370892    -2.203472     0.527010
 C    -3.653159    -2.574239     0.958335
 C    -4.789773    -2.041204     0.326378
 C    -4.633753    -1.135841    -0.735316
 C    -3.347936    -0.764513    -1.161542
 H    -3.226532    -0.052607    -1.984346
 H    -5.514519    -0.716182    -1.231196
 O    -6.052300    -2.408727     0.745131
 H    -3.767281    -3.284400     1.783195
 H    -1.484800    -2.628883     1.010935
 H    -1.233840    -1.070073    -3.147300
 H     0.168346     0.061371    -2.730757
 H     1.028388    -1.554856     1.101091
 H     2.117444    -0.220673     0.642578
 H     2.093689    -2.541089    -0.819436
 H     2.151583    -0.997241    -1.696315
 H    -0.168663    -2.896966    -1.781531
 H    -0.571469     0.240628     0.910333
 H     0.264247     0.955866    -0.487476
 H     0.707946    -1.772894    -2.264113
 C    -7.012101    -1.749780    -0.032410
 H    -8.008399    -2.039804     0.298040
 H    -6.892044    -0.673091     0.078258
 H    -6.882449    -2.023880    -1.078346
}

set scf_type df
set opt_type ts
set basis cc-pVTZ
set reference rhf
set geom_maxiter 400


mol.update_geometry()
mol.symmetrize(1e-3)

e, wfn = optimize('mp2', return_wfn=True)
oeprop(wfn, "MULLIKEN_CHARGES")
mol.print_out()
print_variables()
--------------------------------------------------------------------------

  Memory set to  29.802 GiB by Python driver.

Scratch directory: /local_scratch/pbs.4128350.pbs02/
gradient() will perform analytic gradient computation.

*** tstart() called on skystd21.palmetto.clemson.edu
*** at Sat Dec 11 02:56:14 2021

   => Loading Basis Set <=

    Name: CC-PVTZ
    Role: ORBITAL
    Keyword: BASIS
    atoms 1-12, 28            entry C          line   186 file /home/maxbuskirk/.conda/envs/psifour/share/psi4/basis/cc-pvtz.gbs 
    atoms 13-14, 16-27, 29-31 entry H          line    23 file /home/maxbuskirk/.conda/envs/psifour/share/psi4/basis/cc-pvtz.gbs 
    atoms 15                  entry O          line   262 file /home/maxbuskirk/.conda/envs/psifour/share/psi4/basis/cc-pvtz.gbs 


         ---------------------------------------------------------
                                   SCF
               by Justin Turney, Rob Parrish, Andy Simmonett
                          and Daniel G. A. Smith
                              RHF Reference
                        1 Threads,  30517 MiB Core
         ---------------------------------------------------------

  ==> Geometry <==

    Molecular point group: c1
    Full point group: C1

    Geometry (in Angstrom), charge = 1, multiplicity = 1:

       Center              X                  Y                   Z               Mass       
    ------------   -----------------  -----------------  -----------------  -----------------
         C            3.602803490309     0.611110666153     0.700078227491    12.000000000000
         C            2.339348490309     1.441205666153     0.398689227491    12.000000000000
         C            1.511248490309     0.559300666153    -0.554845772509    12.000000000000
         C            1.866378490309     0.670521666153    -2.022257772509    12.000000000000
         C            2.494804490309    -0.429045333847    -1.188355772509    12.000000000000
         C            3.882201490309    -0.163692333847    -0.604208772509    12.000000000000
         C            0.137672490309     0.146079666153    -0.140397772509    12.000000000000
         C           -0.031543509691    -0.762266333847     0.925699227491    12.000000000000
         C           -1.313810509691    -1.133033333847     1.357024227491    12.000000000000
         C           -2.450424509691    -0.599998333847     0.725067227491    12.000000000000
         C           -2.294404509691     0.305364666153    -0.336626772509    12.000000000000
         C           -1.008587509691     0.676692666153    -0.762852772509    12.000000000000
         H           -0.887183509691     1.388598666153    -1.585656772509     1.007825032230
         H           -3.175170509691     0.725023666153    -0.832506772509     1.007825032230
         O           -3.712951509691    -0.967521333847     1.143820227491    15.994914619570
         H           -1.427932509691    -1.843194333847     2.181884227491     1.007825032230
         H            0.854548490309    -1.187677333847     1.409624227491     1.007825032230
         H            1.105508490309     0.371132666153    -2.748610772509     1.007825032230
         H            2.507694490309     1.502576666153    -2.332067772509     1.007825032230
         H            3.367736490309    -0.113650333847     1.499780227491     1.007825032230
         H            4.456792490309     1.220532666153     1.041267227491     1.007825032230
         H            4.433037490309    -1.099883333847    -0.420746772509     1.007825032230
         H            4.490931490309     0.443964666153    -1.297625772509     1.007825032230
         H            2.170685490309    -1.455760333847    -1.382841772509     1.007825032230
         H            1.767879490309     1.681833666153     1.309022227491     1.007825032230
         H            2.603595490309     2.397071666153    -0.088786772509     1.007825032230
         H            3.047294490309    -0.331688333847    -1.865423772509     1.007825032230
         C           -4.672752509691    -0.308574333847     0.366279227491    12.000000000000
         H           -5.669050509691    -0.598598333847     0.696729227491     1.007825032230
         H           -4.552695509691     0.768114666153     0.476947227491     1.007825032230
         H           -4.543100509691    -0.582674333847    -0.679656772509     1.007825032230

  Running in c1 symmetry.

  Rotational constants: A =      0.06916  B =      0.01108  C =      0.01041 [cm^-1]
  Rotational constants: A =   2073.36031  B =    332.09737  C =    312.18565 [MHz]
  Nuclear repulsion =  881.283916497906489

  Charge       = 1
  Multiplicity = 1
  Electrons    = 102
  Nalpha       = 51
  Nbeta        = 51

  ==> Algorithm <==

  SCF Algorithm Type is DF.
  DIIS enabled.
  MOM disabled.
  Fractional occupation disabled.
  Guess Type is SAD.
  Energy threshold   = 1.00e-10
  Density threshold  = 1.00e-10
  Integral threshold = 1.00e-12

  ==> Primary Basis <==

  Basis Set: CC-PVTZ
    Blend: CC-PVTZ
    Number of shells: 242
    Number of basis functions: 658
    Number of Cartesian functions: 745
    Spherical Harmonics?: true
    Max angular momentum: 3

   => Loading Basis Set <=

    Name: (CC-PVTZ AUX)
    Role: JKFIT
    Keyword: DF_BASIS_SCF
    atoms 1-12, 28            entry C          line   125 file /home/maxbuskirk/.conda/envs/psifour/share/psi4/basis/cc-pvtz-jkfit.gbs 
    atoms 13-14, 16-27, 29-31 entry H          line    51 file /home/maxbuskirk/.conda/envs/psifour/share/psi4/basis/cc-pvtz-jkfit.gbs 
    atoms 15                  entry O          line   229 file /home/maxbuskirk/.conda/envs/psifour/share/psi4/basis/cc-pvtz-jkfit.gbs 

  ==> Integral Setup <==

  DFHelper Memory: AOs need 4.047 GiB; user supplied 22.352 GiB. Using in-core AOs.

  ==> MemDFJK: Density-Fitted J/K Matrices <==

    J tasked:                   Yes
    K tasked:                   Yes
    wK tasked:                   No
    OpenMP threads:               1
    Memory [MiB]:             22888
    Algorithm:                 Core
    Schwarz Cutoff:           1E-12
    Mask sparsity (%):      24.4750
    Fitting Condition:        1E-10

   => Auxiliary Basis Set <=

  Basis Set: (CC-PVTZ AUX)
    Blend: CC-PVTZ-JKFIT
    Number of shells: 520
    Number of basis functions: 1616
    Number of Cartesian functions: 1939
    Spherical Harmonics?: true
    Max angular momentum: 4

  Minimum eigenvalue in the overlap matrix is 3.2289264956E-05.
  Reciprocal condition number of the overlap matrix is 3.1028442564E-06.
    Using symmetric orthogonalization.

  ==> Pre-Iterations <==

  SCF Guess: Superposition of Atomic Densities via on-the-fly atomic UHF (no occupation information).

   -------------------------
    Irrep   Nso     Nmo    
   -------------------------
     A        658     658 
   -------------------------
    Total     658     658
   -------------------------

  ==> Iterations <==

                           Total Energy        Delta E     RMS |[F,P]|

   @DF-RHF iter SAD:  -577.89487687905500   -5.77895e+02   0.00000e+00 
   @DF-RHF iter   1:  -576.49612072421917    1.39876e+00   1.02771e-03 DIIS
   @DF-RHF iter   2:  -576.76128858678021   -2.65168e-01   4.03639e-04 DIIS
   @DF-RHF iter   3:  -576.79798928618743   -3.67007e-02   1.19992e-04 DIIS
   @DF-RHF iter   4:  -576.80257741493870   -4.58813e-03   3.43244e-05 DIIS
   @DF-RHF iter   5:  -576.80289148679788   -3.14072e-04   1.22730e-05 DIIS
   @DF-RHF iter   6:  -576.80293823544230   -4.67486e-05   3.37772e-06 DIIS
   @DF-RHF iter   7:  -576.80294353393003   -5.29849e-06   1.39123e-06 DIIS
   @DF-RHF iter   8:  -576.80294457609739   -1.04217e-06   5.23675e-07 DIIS
   @DF-RHF iter   9:  -576.80294482335330   -2.47256e-07   2.32852e-07 DIIS
   @DF-RHF iter  10:  -576.80294487573883   -5.23855e-08   1.20821e-07 DIIS
   @DF-RHF iter  11:  -576.80294489239225   -1.66534e-08   5.04703e-08 DIIS
   @DF-RHF iter  12:  -576.80294489527364   -2.88139e-09   1.95944e-08 DIIS
   @DF-RHF iter  13:  -576.80294489557173   -2.98087e-10   6.32286e-09 DIIS
   @DF-RHF iter  14:  -576.80294489560163   -2.98996e-11   1.85659e-09 DIIS
   @DF-RHF iter  15:  -576.80294489559981    1.81899e-12   6.93212e-10 DIIS
   @DF-RHF iter  16:  -576.80294489560254   -2.72848e-12   2.61468e-10 DIIS
   @DF-RHF iter  17:  -576.80294489559765    4.88853e-12   1.25383e-10 DIIS
   @DF-RHF iter  18:  -576.80294489560060   -2.95586e-12   6.42474e-11 DIIS
  Energy and wave function converged.


  ==> Post-Iterations <==

    Orbital Energies [Eh]
    ---------------------

    Doubly Occupied:                                                      

       1A    -20.690906     2A    -11.475178     3A    -11.462745  
       4A    -11.437560     5A    -11.434680     6A    -11.423174  
       7A    -11.389974     8A    -11.388829     9A    -11.379749  
      10A    -11.376474    11A    -11.374665    12A    -11.367133  
      13A    -11.355714    14A    -11.352011    15A     -1.517523  
      16A     -1.440163    17A     -1.278561    18A     -1.224594  
      19A     -1.213455    20A     -1.141162    21A     -1.133066  
      22A     -1.050428    23A     -1.037023    24A     -1.005781  
      25A     -0.973317    26A     -0.954223    27A     -0.929072  
      28A     -0.877237    29A     -0.836919    30A     -0.824129  
      31A     -0.803255    32A     -0.783021    33A     -0.770392  
      34A     -0.763969    35A     -0.758925    36A     -0.746328  
      37A     -0.714326    38A     -0.711350    39A     -0.700016  
      40A     -0.685338    41A     -0.667050    42A     -0.655581  
      43A     -0.646487    44A     -0.636838    45A     -0.632644  
      46A     -0.623231    47A     -0.600173    48A     -0.586261  
      49A     -0.575367    50A     -0.462191    51A     -0.438159  

    Virtual:                                                              

      52A     -0.038099    53A     -0.013894    54A     -0.006313  
      55A      0.005487    56A      0.012893    57A      0.016914  
      58A      0.025249    59A      0.048202    60A      0.056336  
      61A      0.061006    62A      0.064361    63A      0.074370  
      64A      0.080476    65A      0.093734    66A      0.098758  
      67A      0.108130    68A      0.119476    69A      0.131667  
      70A      0.137274    71A      0.142041    72A      0.143521  
      73A      0.165603    74A      0.179114    75A      0.180807  
      76A      0.191030    77A      0.194085    78A      0.215995  
      79A      0.228985    80A      0.237830    81A      0.252121  
      82A      0.256962    83A      0.262348    84A      0.266339  
      85A      0.272920    86A      0.278904    87A      0.288826  
      88A      0.291444    89A      0.309129    90A      0.324629  
      91A      0.337505    92A      0.341601    93A      0.353015  
      94A      0.357174    95A      0.368023    96A      0.372531  
      97A      0.377960    98A      0.395900    99A      0.401583  
     100A      0.404952   101A      0.412717   102A      0.417918  
     103A      0.430347   104A      0.433039   105A      0.434689  
     106A      0.441413   107A      0.445491   108A      0.452862  
     109A      0.460677   110A      0.466754   111A      0.467786  
     112A      0.476486   113A      0.477989   114A      0.484575  
     115A      0.485420   116A      0.491029   117A      0.493482  
     118A      0.507392   119A      0.510104   120A      0.512342  
     121A      0.516540   122A      0.522169   123A      0.529952  
     124A      0.533931   125A      0.540080   126A      0.544423  
     127A      0.548969   128A      0.553125   129A      0.555387  
     130A      0.569537   131A      0.570849   132A      0.591367  
     133A      0.601139   134A      0.609781   135A      0.622742  
     136A      0.625207   137A      0.637524   138A      0.653480  
     139A      0.680559   140A      0.693961   141A      0.699520  
     142A      0.714832   143A      0.721430   144A      0.725602  
     145A      0.736970   146A      0.752978   147A      0.757539  
     148A      0.767921   149A      0.781030   150A      0.790512  
     151A      0.802512   152A      0.807649   153A      0.823964  
     154A      0.824553   155A      0.835653   156A      0.850626  
     157A      0.858617   158A      0.871970   159A      0.878933  
     160A      0.881080   161A      0.883144   162A      0.893012  
     163A      0.900360   164A      0.903031   165A      0.913411  
     166A      0.918556   167A      0.931402   168A      0.939149  
     169A      0.948565   170A      0.957617   171A      0.972943  
     172A      0.988617   173A      0.995096   174A      1.009100  
     175A      1.015934   176A      1.023971   177A      1.028188  
     178A      1.034038   179A      1.046054   180A      1.058797  
     181A      1.069425   182A      1.073566   183A      1.086645  
     184A      1.092394   185A      1.095515   186A      1.105130  
     187A      1.106295   188A      1.113106   189A      1.130943  
     190A      1.135716   191A      1.140634   192A      1.148295  
     193A      1.154046   194A      1.163186   195A      1.173176  
     196A      1.175206   197A      1.188593   198A      1.196005  
     199A      1.209400   200A      1.211864   201A      1.217535  
     202A      1.225241   203A      1.244579   204A      1.252437  
     205A      1.256248   206A      1.266130   207A      1.274540  
     208A      1.278623   209A      1.284980   210A      1.295885  
     211A      1.304206   212A      1.318642   213A      1.325406  
     214A      1.332963   215A      1.338282   216A      1.342700  
     217A      1.357871   218A      1.358988   219A      1.375946  
     220A      1.381384   221A      1.385064   222A      1.395304  
     223A      1.398188   224A      1.405307   225A      1.406799  
     226A      1.412767   227A      1.430593   228A      1.441348  
     229A      1.447488   230A      1.460326   231A      1.463834  
     232A      1.471533   233A      1.478640   234A      1.493223  
     235A      1.503906   236A      1.506723   237A      1.516846  
     238A      1.525062   239A      1.539187   240A      1.541784  
     241A      1.546496   242A      1.556176   243A      1.569470  
     244A      1.575213   245A      1.581259   246A      1.594866  
     247A      1.605436   248A      1.620953   249A      1.635520  
     250A      1.642345   251A      1.651735   252A      1.663038  
     253A      1.674262   254A      1.700610   255A      1.706574  
     256A      1.726477   257A      1.728423   258A      1.753106  
     259A      1.762898   260A      1.777925   261A      1.796563  
     262A      1.820411   263A      1.853471   264A      1.861768  
     265A      1.863278   266A      1.895029   267A      1.909886  
     268A      1.918778   269A      1.944619   270A      1.976313  
     271A      2.019838   272A      2.072274   273A      2.082839  
     274A      2.116756   275A      2.151150   276A      2.193472  
     277A      2.228337   278A      2.246340   279A      2.261156  
     280A      2.311191   281A      2.335330   282A      2.365975  
     283A      2.378561   284A      2.396430   285A      2.404823  
     286A      2.435463   287A      2.449841   288A      2.453431  
     289A      2.456119   290A      2.477908   291A      2.487518  
     292A      2.496229   293A      2.507627   294A      2.516136  
     295A      2.532514   296A      2.555135   297A      2.562318  
     298A      2.582783   299A      2.592519   300A      2.603086  
     301A      2.612007   302A      2.618984   303A      2.628324  
     304A      2.648262   305A      2.664672   306A      2.667138  
     307A      2.677317   308A      2.688228   309A      2.702563  
     310A      2.707590   311A      2.714640   312A      2.729191  
     313A      2.733262   314A      2.743783   315A      2.753529  
     316A      2.765133   317A      2.770751   318A      2.773527  
     319A      2.787067   320A      2.800689   321A      2.802497  
     322A      2.817250   323A      2.823791   324A      2.839504  
     325A      2.840766   326A      2.851243   327A      2.857798  
     328A      2.867084   329A      2.882901   330A      2.885709  
     331A      2.901031   332A      2.904701   333A      2.909090  
     334A      2.916269   335A      2.920438   336A      2.929677  
     337A      2.947859   338A      2.955641   339A      2.963781  
     340A      2.969633   341A      2.977030   342A      2.983432  
     343A      2.998375   344A      3.010355   345A      3.033189  
     346A      3.046585   347A      3.049591   348A      3.057486  
     349A      3.063943   350A      3.071948   351A      3.088865  
     352A      3.098524   353A      3.108767   354A      3.113250  
     355A      3.118181   356A      3.127636   357A      3.139027  
     358A      3.151945   359A      3.159389   360A      3.162742  
     361A      3.164999   362A      3.180460   363A      3.185037  
     364A      3.188407   365A      3.204532   366A      3.215103  
     367A      3.223447   368A      3.227017   369A      3.229168  
     370A      3.234660   371A      3.239907   372A      3.246732  
     373A      3.252794   374A      3.256675   375A      3.259828  
     376A      3.264410   377A      3.275242   378A      3.282445  
     379A      3.292190   380A      3.293382   381A      3.300687  
     382A      3.307899   383A      3.312957   384A      3.321096  
     385A      3.325132   386A      3.349717   387A      3.353902  
     388A      3.357753   389A      3.367696   390A      3.376609  
     391A      3.380453   392A      3.389427   393A      3.394393  
     394A      3.398685   395A      3.407986   396A      3.416347  
     397A      3.428318   398A      3.432440   399A      3.443427  
     400A      3.453338   401A      3.466428   402A      3.471463  
     403A      3.473053   404A      3.480708   405A      3.498854  
     406A      3.505941   407A      3.510278   408A      3.513357  
     409A      3.527559   410A      3.529819   411A      3.534105  
     412A      3.549905   413A      3.555617   414A      3.564494  
     415A      3.571511   416A      3.583045   417A      3.595381  
     418A      3.600112   419A      3.613191   420A      3.621052  
     421A      3.625553   422A      3.637158   423A      3.641876  
     424A      3.647448   425A      3.656635   426A      3.665268  
     427A      3.672949   428A      3.674558   429A      3.681590  
     430A      3.691963   431A      3.702764   432A      3.720735  
     433A      3.734713   434A      3.751057   435A      3.755031  
     436A      3.773652   437A      3.777380   438A      3.786843  
     439A      3.796081   440A      3.822113   441A      3.824039  
     442A      3.832472   443A      3.847383   444A      3.855083  
     445A      3.858089   446A      3.864931   447A      3.874265  
     448A      3.896985   449A      3.898371   450A      3.902714  
     451A      3.908207   452A      3.924732   453A      3.928151  
     454A      3.935268   455A      3.949455   456A      3.957155  
     457A      3.962787   458A      3.975170   459A      3.984478  
     460A      3.987478   461A      3.992667   462A      4.005977  
     463A      4.013367   464A      4.020391   465A      4.027541  
     466A      4.031375   467A      4.037151   468A      4.044606  
     469A      4.061633   470A      4.073465   471A      4.079010  
     472A      4.081172   473A      4.089459   474A      4.094722  
     475A      4.105211   476A      4.115021   477A      4.129052  
     478A      4.135784   479A      4.138348   480A      4.153814  
     481A      4.164523   482A      4.173759   483A      4.181863  
     484A      4.187008   485A      4.203537   486A      4.211260  
     487A      4.225802   488A      4.230059   489A      4.237773  
     490A      4.255683   491A      4.262718   492A      4.270765  
     493A      4.279210   494A      4.287248   495A      4.294168  
     496A      4.304281   497A      4.309442   498A      4.324114  
     499A      4.333898   500A      4.341519   501A      4.349505  
     502A      4.359977   503A      4.378553   504A      4.383720  
     505A      4.397294   506A      4.406802   507A      4.413226  
     508A      4.414607   509A      4.427249   510A      4.434099  
     511A      4.437828   512A      4.450159   513A      4.452072  
     514A      4.460076   515A      4.474850   516A      4.475933  
     517A      4.488237   518A      4.494832   519A      4.510941  
     520A      4.519011   521A      4.535966   522A      4.539589  
     523A      4.559580   524A      4.564615   525A      4.567779  
     526A      4.582556   527A      4.587727   528A      4.607798  
     529A      4.611956   530A      4.630714   531A      4.637335  
     532A      4.654328   533A      4.667644   534A      4.675145  
     535A      4.684809   536A      4.697808   537A      4.705903  
     538A      4.715540   539A      4.734964   540A      4.754570  
     541A      4.775652   542A      4.789662   543A      4.797993  
     544A      4.821540   545A      4.827059   546A      4.859439  
     547A      4.882056   548A      4.904496   549A      4.920501  
     550A      4.923363   551A      4.932192   552A      4.948200  
     553A      4.957748   554A      4.973874   555A      4.978068  
     556A      4.993473   557A      5.002283   558A      5.013706  
     559A      5.030285   560A      5.050131   561A      5.061399  
     562A      5.074902   563A      5.090917   564A      5.110292  
     565A      5.130332   566A      5.135791   567A      5.145364  
     568A      5.158921   569A      5.164492   570A      5.183161  
     571A      5.199671   572A      5.203616   573A      5.212702  
     574A      5.220498   575A      5.234262   576A      5.245571  
     577A      5.266870   578A      5.282804   579A      5.288595  
     580A      5.289800   581A      5.297778   582A      5.303821  
     583A      5.317703   584A      5.325574   585A      5.345280  
     586A      5.370011   587A      5.381148   588A      5.384164  
     589A      5.402333   590A      5.421826   591A      5.440042  
     592A      5.451750   593A      5.463485   594A      5.475767  
     595A      5.487337   596A      5.506845   597A      5.542980  
     598A      5.565433   599A      5.580644   600A      5.612349  
     601A      5.622076   602A      5.646261   603A      5.658910  
     604A      5.673285   605A      5.702646   606A      5.727953  
     607A      5.733398   608A      5.763578   609A      5.781463  
     610A      5.811626   611A      5.851238   612A      5.869903  
     613A      5.880321   614A      5.932002   615A      5.934380  
     616A      5.976525   617A      6.023247   618A      6.031133  
     619A      6.068409   620A      6.110882   621A      6.133779  
     622A      6.157975   623A      6.168346   624A      6.197030  
     625A      6.216681   626A      6.234310   627A      6.264785  
     628A      6.276137   629A      6.285047   630A      6.312613  
     631A      6.331049   632A      6.352349   633A      6.472579  
     634A      6.502762   635A      6.668003   636A      6.674637  
     637A      6.708582   638A      6.914715   639A      7.166644  
     640A      7.190143   641A      7.277864   642A      7.326755  
     643A      7.703705   644A      7.823243   645A      9.495023  
     646A     11.913484   647A     12.138194   648A     12.362155  
     649A     12.604323   650A     13.099153   651A     13.174530  
     652A     13.253840   653A     13.657851   654A     13.694786  
     655A     13.902266   656A     14.376756   657A     15.810413  
     658A     16.442109  

    Final Occupation by Irrep:
              A 
    DOCC [    51 ]

  @DF-RHF Final Energy:  -576.80294489560060

   => Energetics <=

    Nuclear Repulsion Energy =            881.2839164979064890
    One-Electron Energy =               -2515.5610266212215720
    Two-Electron Energy =                1057.4741652277145931
    Total Energy =                       -576.8029448956006036

Computation Completed


Properties will be evaluated at   0.000000,   0.000000,   0.000000 [a0]

Properties computed using the SCF density matrix

  Nuclear Dipole Moment: [e a0]
     X:     9.8730      Y:     3.0756      Z:    -4.3244

  Electronic Dipole Moment: [e a0]
     X:    -6.5362      Y:    -2.5263      Z:     2.3308

  Dipole Moment: [e a0]
     X:     3.3368      Y:     0.5493      Z:    -1.9936     Total:     3.9256

  Dipole Moment: [D]
     X:     8.4813      Y:     1.3962      Z:    -5.0672     Total:     9.9779


*** tstop() called on skystd21.palmetto.clemson.edu at Sat Dec 11 02:58:08 2021
Module time:
	user time   =     110.27 seconds =       1.84 minutes
	system time =       3.32 seconds =       0.06 minutes
	total time  =        114 seconds =       1.90 minutes
Total time:
	user time   =     110.27 seconds =       1.84 minutes
	system time =       3.32 seconds =       0.06 minutes
	total time  =        114 seconds =       1.90 minutes

*** tstart() called on skystd21.palmetto.clemson.edu
*** at Sat Dec 11 02:58:08 2021


  //>>>>>>>>>>>>>>>>>>>>>>>>>>>>>>>>>>>//
  //               DFMP2               //
  //<<<<<<<<<<<<<<<<<<<<<<<<<<<<<<<<<<<//

   => Loading Basis Set <=

    Name: (CC-PVTZ AUX)
    Role: RIFIT
    Keyword: DF_BASIS_MP2
    atoms 1-12, 28            entry C          line   209 file /home/maxbuskirk/.conda/envs/psifour/share/psi4/basis/cc-pvtz-ri.gbs 
    atoms 13-14, 16-27, 29-31 entry H          line    19 file /home/maxbuskirk/.conda/envs/psifour/share/psi4/basis/cc-pvtz-ri.gbs 
    atoms 15                  entry O          line   305 file /home/maxbuskirk/.conda/envs/psifour/share/psi4/basis/cc-pvtz-ri.gbs 

	 --------------------------------------------------------
	                          DF-MP2                         
	      2nd-Order Density-Fitted Moller-Plesset Theory     
	              RMP2 Wavefunction,   1 Threads             
	                                                         
	        Rob Parrish, Justin Turney, Andy Simmonett,      
	           Ed Hohenstein, and C. David Sherrill          
	 --------------------------------------------------------

   => Auxiliary Basis Set <=

  Basis Set: (CC-PVTZ AUX)
    Blend: CC-PVTZ-RI
    Number of shells: 492
    Number of basis functions: 1644
    Number of Cartesian functions: 2009
    Spherical Harmonics?: true
    Max angular momentum: 4

	 --------------------------------------------------------
	                 NBF =   658, NAUX =  1644
	 --------------------------------------------------------
	   CLASS    FOCC     OCC    AOCC    AVIR     VIR    FVIR
	   PAIRS       0      51      51     607     607       0
	 --------------------------------------------------------

  DFHelper Memory: AOs need 4.047 GiB; user supplied 22.352 GiB. Using in-core AOs.


         ------------------------------------------------------------
                                     CPHF                           
                                  Rob Parrish                       
         ------------------------------------------------------------

  ==> Geometry <==

    Molecular point group: c1
    Full point group: C1

    Geometry (in Angstrom), charge = 1, multiplicity = 1:

       Center              X                  Y                   Z               Mass       
    ------------   -----------------  -----------------  -----------------  -----------------
         C            3.602803490309     0.611110666153     0.700078227491    12.000000000000
         C            2.339348490309     1.441205666153     0.398689227491    12.000000000000
         C            1.511248490309     0.559300666153    -0.554845772509    12.000000000000
         C            1.866378490309     0.670521666153    -2.022257772509    12.000000000000
         C            2.494804490309    -0.429045333847    -1.188355772509    12.000000000000
         C            3.882201490309    -0.163692333847    -0.604208772509    12.000000000000
         C            0.137672490309     0.146079666153    -0.140397772509    12.000000000000
         C           -0.031543509691    -0.762266333847     0.925699227491    12.000000000000
         C           -1.313810509691    -1.133033333847     1.357024227491    12.000000000000
         C           -2.450424509691    -0.599998333847     0.725067227491    12.000000000000
         C           -2.294404509691     0.305364666153    -0.336626772509    12.000000000000
         C           -1.008587509691     0.676692666153    -0.762852772509    12.000000000000
         H           -0.887183509691     1.388598666153    -1.585656772509     1.007825032230
         H           -3.175170509691     0.725023666153    -0.832506772509     1.007825032230
         O           -3.712951509691    -0.967521333847     1.143820227491    15.994914619570
         H           -1.427932509691    -1.843194333847     2.181884227491     1.007825032230
         H            0.854548490309    -1.187677333847     1.409624227491     1.007825032230
         H            1.105508490309     0.371132666153    -2.748610772509     1.007825032230
         H            2.507694490309     1.502576666153    -2.332067772509     1.007825032230
         H            3.367736490309    -0.113650333847     1.499780227491     1.007825032230
         H            4.456792490309     1.220532666153     1.041267227491     1.007825032230
         H            4.433037490309    -1.099883333847    -0.420746772509     1.007825032230
         H            4.490931490309     0.443964666153    -1.297625772509     1.007825032230
         H            2.170685490309    -1.455760333847    -1.382841772509     1.007825032230
         H            1.767879490309     1.681833666153     1.309022227491     1.007825032230
         H            2.603595490309     2.397071666153    -0.088786772509     1.007825032230
         H            3.047294490309    -0.331688333847    -1.865423772509     1.007825032230
         C           -4.672752509691    -0.308574333847     0.366279227491    12.000000000000
         H           -5.669050509691    -0.598598333847     0.696729227491     1.007825032230
         H           -4.552695509691     0.768114666153     0.476947227491     1.007825032230
         H           -4.543100509691    -0.582674333847    -0.679656772509     1.007825032230

  Nuclear repulsion =  881.283916497906489
  Reference energy  = -576.802944895600604

  ==> Basis Set <==

  Basis Set: CC-PVTZ
    Blend: CC-PVTZ
    Number of shells: 242
    Number of basis functions: 658
    Number of Cartesian functions: 745
    Spherical Harmonics?: true
    Max angular momentum: 3

  ==> CGRSolver (by Rob Parrish) <==

   Number of roots    =         1
   Preconditioning    =    JACOBI
   Convergence cutoff =     1E-06
   Maximum iterations =       100

  ==> CPHFRHamiltonian (by Rob Parrish) <== 

  ==> MemDFJK: Density-Fitted J/K Matrices <==

    J tasked:                   Yes
    K tasked:                   Yes
    wK tasked:                   No
    OpenMP threads:               1
    Memory [MiB]:             22888
    Algorithm:                 Core
    Schwarz Cutoff:           1E-12
    Mask sparsity (%):      24.4750
    Fitting Condition:        1E-10

   => Auxiliary Basis Set <=

  Basis Set: (CC-PVTZ AUX)
    Blend: CC-PVTZ-JKFIT
    Number of shells: 520
    Number of basis functions: 1616
    Number of Cartesian functions: 1939
    Spherical Harmonics?: true
    Max angular momentum: 4

  ==> CPHF Iterations <==

  => Iterations <=

             Iter  Converged  Remaining    Residual
  CGR           1          0          1   9.296E-02
  CGR           2          0          1   2.577E-02
  CGR           3          0          1   1.377E-02
  CGR           4          0          1   5.944E-03
  CGR           5          0          1   2.811E-03
  CGR           6          0          1   1.358E-03
  CGR           7          0          1   4.652E-04
  CGR           8          0          1   1.556E-04
  CGR           9          0          1   5.203E-05
  CGR          10          0          1   1.590E-05
  CGR          11          0          1   5.498E-06
  CGR          12          0          1   1.664E-06
  CGR          13          1          0   7.213E-07

    CGRSolver converged.

  ==> DFCorrGrad: Density-Fitted Correlated Gradients <==

    OpenMP threads:              1
    Integrals threads:           1
    Memory [GiB]:           22.352
    Schwarz Cutoff:          0E+00
    Fitting Condition:       1E-10

   => Auxiliary Basis Set <=

  Basis Set: (CC-PVTZ AUX)
    Blend: CC-PVTZ-JKFIT
    Number of shells: 520
    Number of basis functions: 1616
    Number of Cartesian functions: 1939
    Spherical Harmonics?: true
    Max angular momentum: 4

	-----------------------------------------------------------
	 ==================> DF-MP2 Energies <==================== 
	-----------------------------------------------------------
	 Reference Energy          =    -576.8029448956006036 [Eh]
	 Singles Energy            =      -0.0000000000000000 [Eh]
	 Same-Spin Energy          =      -0.6261169624901763 [Eh]
	 Opposite-Spin Energy      =      -1.9744866226044517 [Eh]
	 Correlation Energy        =      -2.6006035850946283 [Eh]
	 Total Energy              =    -579.4035484806952354 [Eh]
	-----------------------------------------------------------
	 ================> DF-SCS-MP2 Energies <================== 
	-----------------------------------------------------------
	 SCS Same-Spin Scale       =       0.3333333333333333 [-]
	 SCS Opposite-Spin Scale   =       1.2000000000000000 [-]
	 SCS Same-Spin Energy      =      -0.2087056541633921 [Eh]
	 SCS Opposite-Spin Energy  =      -2.3693839471253422 [Eh]
	 SCS Correlation Energy    =      -2.5780896012887342 [Eh]
	 SCS Total Energy          =    -579.3810344968893560 [Eh]
	-----------------------------------------------------------


  -Total Gradient:
     Atom            X                  Y                   Z
    ------   -----------------  -----------------  -----------------
       1        0.002890722847    -0.002991096244    -0.009022991513
       2       -0.007050762180    -0.003247817338    -0.001945160976
       3        0.006558324975    -0.031613831323     0.023367321506
       4        0.054670919509    -0.049711775228    -0.008597234824
       5        0.147174319687     0.098370859942    -0.199004382692
       6       -0.038396178429    -0.004845318803    -0.043155305052
       7        0.004399275599     0.010781455293     0.002907720960
       8        0.006024321053    -0.001183450392     0.000714830812
       9       -0.006934887277     0.001445998710    -0.001356645229
      10        0.010237909266     0.000860133648    -0.000655209940
      11       -0.011854936069    -0.007264280936     0.007029631596
      12       -0.005104881882     0.004009449345    -0.001854350211
      13        0.003261838726     0.006645818203    -0.008322669922
      14       -0.021218239976     0.003450013637    -0.004545461151
      15       -0.036951059241    -0.002200426161     0.002122365546
      16        0.000480688190    -0.008117053969     0.009446896965
      17        0.010709181011    -0.003225113275     0.003147263757
      18       -0.010465485595     0.003829187369    -0.006950246270
      19       -0.000335225710     0.012960062349    -0.004864796119
      20       -0.002853514450    -0.006106011473     0.009250680309
      21        0.008674215245     0.007465136673     0.005862123764
      22        0.008578206483    -0.008203954044     0.004390487429
      23        0.006837784938     0.004613138541    -0.005772424798
      24        0.003666942138    -0.007153830838    -0.013054686050
      25       -0.004883948476     0.004539331775     0.010934766546
      26        0.003364521791     0.010172301902    -0.003831540038
      27       -0.159728683632    -0.033929314520     0.234267615082
      28        0.023148019719    -0.001850167513     0.002304865704
      29       -0.006963774505     0.001653239572    -0.001981580428
      30        0.005987264481     0.001226356590     0.000292451070
      31        0.006077121748    -0.000379041498    -0.001124335831


*** tstop() called on skystd21.palmetto.clemson.edu at Sat Dec 11 03:10:26 2021
Module time:
	user time   =     708.66 seconds =      11.81 minutes
	system time =      23.93 seconds =       0.40 minutes
	total time  =        738 seconds =      12.30 minutes
Total time:
	user time   =     818.93 seconds =      13.65 minutes
	system time =      27.25 seconds =       0.45 minutes
	total time  =        852 seconds =      14.20 minutes

			-----------------------------------------
			 OPTKING 2.0: for geometry optimizations 
			  - R.A. King,  Bethel University        
			-----------------------------------------

	Internal coordinates to be generated automatically.
	Detected frag 1 with atoms:  1 2 3 4 5 6 7 8 9 10 11 12 13 14 15 16 17 18 19 20
	 21 22 23 24 25 26 27 28 29 30 31
	---Fragment 1 Bond Connectivity---
	 1 : 2 6 20 21
	 2 : 1 3 25 26
	 3 : 2 4 5 7
	 4 : 3 5 18 19
	 5 : 3 4 6 24 27
	 6 : 1 5 22 23
	 7 : 3 8 12
	 8 : 7 9 17
	 9 : 8 10 16
	 10 : 9 11 15
	 11 : 10 12 14
	 12 : 7 11 13
	 13 : 12
	 14 : 11
	 15 : 10 28
	 16 : 9
	 17 : 8
	 18 : 4
	 19 : 4
	 20 : 1
	 21 : 1
	 22 : 6
	 23 : 6
	 24 : 5
	 25 : 2
	 26 : 2
	 27 : 5
	 28 : 15 29 30 31
	 29 : 28
	 30 : 28
	 31 : 28

	---Fragment 1 Geometry and Gradient---
	 C           6.8083118805        1.1548317914        1.3229561164
	 C           4.4207279587        2.7234839995        0.7534134491
	 C           2.8558457542        1.0569250808       -1.0485065519
	 C           3.5269441931        1.2671023102       -3.8215133451
	 C           4.7144972232       -0.8107781764       -2.2456669496
	 C           7.3362975805       -0.3093336798       -1.1417891026
	 C           0.2601633017        0.2760505615       -0.2653133387
	 C          -0.0596085944       -1.4404746056        1.7493180145
	 C          -2.4827420441       -2.1411226920        2.5644041356
	 C          -4.6306312144       -1.1338325267        1.3701784825
	 C          -4.3357961443        0.5770555874       -0.6361324065
	 C          -1.9059541669        1.2787638101       -1.4415828141
	 H          -1.6765338563        2.6240711772       -2.9964570290
	 H          -6.0002026649        1.3700961635       -1.5732097976
	 O          -7.0164614704       -1.8283503415        2.1615069667
	 H          -2.6984013690       -3.4831324870        4.1231636274
	 H           1.6148626076       -2.2443848864        2.6638037298
	 H           2.0891082761        0.7013390952       -5.1941215855
	 H           4.7388557930        2.8394583815       -4.4069693960
	 H           6.3640996294       -0.2147680050        2.8341738783
	 H           8.4221172047        2.3064724662        1.9677098834
	 H           8.3772267606       -2.0784782709       -0.7950961682
	 H           8.4866305649        0.8389716284       -2.4521573234
	 H           4.1020010812       -2.7509883353       -2.6131922249
	 H           3.3408080595        3.1782050176        2.4736935021
	 H           4.9200824182        4.5298089521       -0.1677826836
	 H           5.7585520103       -0.6268001100       -3.5251400380
	 C          -8.8302224954       -0.5831209803        0.6921674254
	 H         -10.7129528547       -1.1311869101        1.3166274236
	 H          -8.6033476459        1.4515263520        0.9012996363
	 H          -8.5852157237       -1.1010949113       -1.2843651594
	             0.0028907228       -0.0029910962       -0.0090229915
	            -0.0070507622       -0.0032478173       -0.0019451610
	             0.0065583250       -0.0316138313        0.0233673215
	             0.0546709195       -0.0497117752       -0.0085972348
	             0.1471743197        0.0983708599       -0.1990043827
	            -0.0383961784       -0.0048453188       -0.0431553051
	             0.0043992756        0.0107814553        0.0029077210
	             0.0060243211       -0.0011834504        0.0007148308
	            -0.0069348873        0.0014459987       -0.0013566452
	             0.0102379093        0.0008601336       -0.0006552099
	            -0.0118549361       -0.0072642809        0.0070296316
	            -0.0051048819        0.0040094493       -0.0018543502
	             0.0032618387        0.0066458182       -0.0083226699
	            -0.0212182400        0.0034500136       -0.0045454612
	            -0.0369510592       -0.0022004262        0.0021223655
	             0.0004806882       -0.0081170540        0.0094468970
	             0.0107091810       -0.0032251133        0.0031472638
	            -0.0104654856        0.0038291874       -0.0069502463
	            -0.0003352257        0.0129600623       -0.0048647961
	            -0.0028535145       -0.0061060115        0.0092506803
	             0.0086742152        0.0074651367        0.0058621238
	             0.0085782065       -0.0082039540        0.0043904874
	             0.0068377849        0.0046131385       -0.0057724248
	             0.0036669421       -0.0071538308       -0.0130546861
	            -0.0048839485        0.0045393318        0.0109347665
	             0.0033645218        0.0101723019       -0.0038315400
	            -0.1597286836       -0.0339293145        0.2342676151
	             0.0231480197       -0.0018501675        0.0023048657
	            -0.0069637745        0.0016532396       -0.0019815804
	             0.0059872645        0.0012263566        0.0002924511
	             0.0060771217       -0.0003790415       -0.0011243358

	Previous optimization step data not found.  Starting new optimization.

	---Fragment 1 Intrafragment Coordinates---
	 - Coordinate -           - BOHR/RAD -       - ANG/DEG -
	 R(1,2)           =         2.913006	       1.541497
	 R(1,6)           =         2.915050	       1.542578
	 R(1,20)          =         2.087321	       1.104562
	 R(1,21)          =         2.084790	       1.103224
	 R(2,3)           =         2.910875	       1.540368
	 R(2,25)          =         2.081433	       1.101447
	 R(2,26)          =         2.088245	       1.105052
	 R(3,4)           =         2.860789	       1.513864
	 R(3,5)           =         2.894148	       1.531517
	 R(3,7)           =         2.821476	       1.493061
	 R(4,5)           =         2.865512	       1.516364
	 R(4,18)          =         2.066764	       1.093684
	 R(4,19)          =         2.069732	       1.095255
	 R(5,6)           =         2.888569	       1.528565
	 R(5,24)          =         2.067521	       1.094085
	 R(5,27)          =         1.661611	       0.879286
	 R(6,22)          =         2.081731	       1.101604
	 R(6,23)          =         2.087806	       1.104820
	 R(7,8)           =         2.665981	       1.410776
	 R(7,12)          =         2.661035	       1.408159
	 R(8,9)           =         2.650820	       1.402754
	 R(8,17)          =         2.070365	       1.095590
	 R(9,10)          =         2.655981	       1.405485
	 R(9,16)          =         2.068147	       1.094416
	 R(10,11)         =         2.653177	       1.404001
	 R(10,15)         =         2.607823	       1.380001
	 R(11,12)         =         2.654294	       1.404592
	 R(11,14)         =         2.068158	       1.094422
	 R(12,13)         =         2.068845	       1.094786
	 R(15,28)         =         2.645616	       1.400000
	 R(28,29)         =         2.057912	       1.089000
	 R(28,30)         =         2.057911	       1.089000
	 R(28,31)         =         2.057913	       1.089001
	 B(1,2,3)         =         1.826944	     104.676198
	 B(1,2,25)        =         1.962002	     112.414409
	 B(1,2,26)        =         1.934839	     110.858094
	 B(1,6,5)         =         1.819262	     104.236043
	 B(1,6,22)        =         1.956931	     112.123910
	 B(1,6,23)        =         1.932871	     110.745342
	 B(2,1,6)         =         1.827213	     104.691617
	 B(2,1,20)        =         1.897014	     108.690913
	 B(2,1,21)        =         1.979545	     113.419580
	 B(2,3,4)         =         2.017351	     115.585685
	 B(2,3,5)         =         1.854886	     106.277162
	 B(2,3,7)         =         2.072817	     118.763664
	 B(3,2,25)        =         1.936680	     110.963570
	 B(3,2,26)        =         1.929130	     110.530986
	 B(3,4,5)         =         1.059720	      60.717500
	 B(3,4,18)        =         2.049292	     117.415782
	 B(3,4,19)        =         2.057096	     117.862942
	 B(3,5,4)         =         1.039528	      59.560564
	 B(3,5,6)         =         1.888930	     108.227717
	 B(3,5,24)        =         2.081600	     119.266883
	 B(3,5,27)        =         2.279157	     130.586085
	 B(3,7,8)         =         2.092441	     119.888038
	 B(3,7,12)        =         2.119852	     121.458574
	 B(4,3,5)         =         1.042344	      59.721936
	 B(4,3,7)         =         2.100422	     120.345328
	 B(4,5,6)         =         2.049282	     117.415187
	 B(4,5,24)        =         2.048738	     117.384025
	 B(4,5,27)        =         1.324981	      75.915795
	 B(5,3,7)         =         2.125903	     121.805252
	 B(5,4,18)        =         2.043221	     117.067911
	 B(5,4,19)        =         2.053042	     117.630648
	 B(5,6,22)        =         1.949769	     111.713517
	 B(5,6,23)        =         1.934481	     110.837597
	 B(6,1,20)        =         1.897723	     108.731493
	 B(6,1,21)        =         1.980944	     113.499740
	 B(6,5,24)        =         2.094079	     119.981893
	 B(6,5,27)        =         1.271064	      72.826578
	 B(7,8,9)         =         2.108523	     120.809467
	 B(7,8,17)        =         2.079202	     119.129487
	 B(7,12,11)       =         2.107639	     120.758819
	 B(7,12,13)       =         2.079425	     119.142292
	 B(8,7,12)        =         2.070330	     118.621159
	 B(8,9,10)        =         2.095249	     120.048921
	 B(8,9,16)        =         2.092759	     119.906259
	 B(9,8,17)        =         2.095393	     120.057181
	 B(9,10,11)       =         2.088291	     119.650243
	 B(9,10,15)       =         2.097186	     120.159918
	 B(10,9,16)       =         2.095155	     120.043517
	 B(10,11,12)      =         2.096327	     120.110679
	 B(10,11,14)      =         2.094932	     120.030779
	 B(10,15,28)      =         1.910633	     109.471181
	 B(11,10,15)      =         2.097705	     120.189615
	 B(11,12,13)      =         2.096116	     120.098614
	 B(12,11,14)      =         2.091924	     119.858405
	 B(15,28,29)      =         1.910633	     109.471185
	 B(15,28,30)      =         1.910634	     109.471281
	 B(15,28,31)      =         1.910634	     109.471237
	 B(18,4,19)       =         2.012474	     115.306264
	 B(20,1,21)       =         1.878938	     107.655190
	 B(22,6,23)       =         1.871758	     107.243849
	 B(24,5,27)       =         1.724570	      98.810586
	 B(25,2,26)       =         1.875161	     107.438837
	 B(29,28,30)      =         1.910634	     109.471277
	 B(29,28,31)      =         1.910632	     109.471158
	 B(30,28,31)      =         1.910633	     109.471186
	 D(1,2,3,4)       =        -1.487484	     -85.226572
	 D(1,2,3,5)       =        -0.375127	     -21.493186
	 D(1,2,3,7)       =         2.100956	     120.375901
	 D(1,6,5,3)       =         0.342659	      19.632931
	 D(1,6,5,4)       =         1.468895	      84.161501
	 D(1,6,5,24)      =        -2.129570	    -122.015351
	 D(1,6,5,27)      =         2.576032	     147.595773
	 D(2,1,6,5)       =        -0.573602	     -32.864999
	 D(2,1,6,22)      =        -2.685602	    -153.873654
	 D(2,1,6,23)      =         1.507600	      86.379143
	 D(2,3,4,5)       =         1.651177	      94.605460
	 D(2,3,4,18)      =        -2.759824	    -158.126276
	 D(2,3,4,19)      =        -0.229547	     -13.152074
	 D(2,3,5,4)       =        -1.928884	    -110.516925
	 D(2,3,5,6)       =         0.019569	       1.121217
	 D(2,3,5,24)      =         2.497380	     143.089359
	 D(2,3,5,27)      =        -1.423665	     -81.570010
	 D(2,3,7,8)       =        -1.201325	     -68.830845
	 D(2,3,7,12)      =         1.903727	     109.075519
	 D(3,2,1,6)       =         0.589407	      33.770540
	 D(3,2,1,20)      =        -1.436065	     -82.280465
	 D(3,2,1,21)      =         2.757968	     158.019943
	 D(3,4,5,6)       =        -1.674893	     -95.964306
	 D(3,4,5,24)      =         1.911561	     109.524357
	 D(3,4,5,27)      =        -2.752926	    -157.731045
	 D(3,5,4,18)      =        -1.882068	    -107.834530
	 D(3,5,4,19)      =         1.887309	     108.134828
	 D(3,5,6,22)      =         2.459428	     140.914841
	 D(3,5,6,23)      =        -1.737450	     -99.548568
	 D(3,7,8,9)       =         3.108309	     178.092997
	 D(3,7,8,17)      =        -0.045760	      -2.621861
	 D(3,7,12,11)     =        -3.110817	    -178.236678
	 D(3,7,12,13)     =         0.027453	       1.572949
	 D(4,3,2,25)      =         2.675187	     153.276932
	 D(4,3,2,26)      =         0.596675	      34.186976
	 D(4,3,5,6)       =         1.948453	     111.638142
	 D(4,3,5,24)      =        -1.856921	    -106.393716
	 D(4,3,5,27)      =         0.505219	      28.946915
	 D(4,3,7,8)       =         2.408854	     138.017151
	 D(4,3,7,12)      =        -0.769280	     -44.076485
	 D(4,5,3,7)       =         1.903190	     109.044759
	 D(4,5,6,22)      =        -2.697521	    -154.556588
	 D(4,5,6,23)      =        -0.611214	     -35.019998
	 D(5,3,2,25)      =        -2.495641	    -142.989682
	 D(5,3,2,26)      =         1.709033	      97.920361
	 D(5,3,4,18)      =         1.872184	     107.268264
	 D(5,3,4,19)      =        -1.880724	    -107.757534
	 D(5,3,7,8)       =         1.168456	      66.947624
	 D(5,3,7,12)      =        -2.009677	    -115.146011
	 D(5,4,3,7)       =        -1.944837	    -111.430967
	 D(5,6,1,20)      =         1.451379	      83.157872
	 D(5,6,1,21)      =        -2.741271	    -157.063259
	 D(6,1,2,25)      =         2.693170	     154.307289
	 D(6,1,2,26)      =        -1.490910	     -85.422842
	 D(6,5,3,7)       =        -2.431542	    -139.317099
	 D(6,5,4,18)      =         2.726225	     156.201164
	 D(6,5,4,19)      =         0.212416	      12.170522
	 D(7,3,2,25)      =        -0.019558	      -1.120595
	 D(7,3,2,26)      =        -2.098070	    -120.210552
	 D(7,3,4,18)      =        -0.072653	      -4.162703
	 D(7,3,4,19)      =         2.457624	     140.811498
	 D(7,3,5,24)      =         0.046269	       2.651043
	 D(7,3,5,27)      =         2.408409	     137.991674
	 D(7,8,9,10)      =         0.001304	       0.074700
	 D(7,8,9,16)      =         3.135653	     179.659684
	 D(7,12,11,10)    =         0.004887	       0.280010
	 D(7,12,11,14)    =        -3.139052	    -179.854428
	 D(8,7,12,11)     =        -0.005315	      -0.304531
	 D(8,7,12,13)     =         3.132955	     179.505096
	 D(8,9,10,11)     =        -0.001796	      -0.102888
	 D(8,9,10,15)     =         3.136800	     179.725411
	 D(9,8,7,12)      =         0.002225	       0.127485
	 D(9,10,11,12)    =        -0.001268	      -0.072650
	 D(9,10,11,14)    =        -3.140510	    -179.937978
	 D(9,10,15,28)    =         3.141593	     180.000000
	 D(10,9,8,17)     =        -3.127697	    -179.203838
	 D(10,11,12,13)   =        -3.133351	    -179.527802
	 D(10,15,28,29)   =         3.141593	     180.000000
	 D(10,15,28,30)   =        -1.047197	     -59.999960
	 D(10,15,28,31)   =         1.047198	      60.000045
	 D(11,10,9,16)    =        -3.136135	    -179.687298
	 D(11,10,15,28)   =        -0.003013	      -0.172655
	 D(12,7,8,17)     =         3.131341	     179.412627
	 D(12,11,10,15)   =        -3.139863	    -179.900897
	 D(13,12,11,14)   =         0.005895	       0.337760
	 D(14,11,10,15)   =         0.004080	       0.233774
	 D(15,10,9,16)    =         0.002461	       0.141001
	 D(16,9,8,17)     =         0.006652	       0.381147
	 D(18,4,5,24)     =         0.029493	       1.689827
	 D(18,4,5,27)     =         1.648192	      94.434426
	 D(19,4,5,24)     =        -2.484316	    -142.340815
	 D(19,4,5,27)     =        -0.865617	     -49.596217
	 D(20,1,2,25)     =         0.667698	      38.256283
	 D(20,1,2,26)     =         2.766803	     158.526152
	 D(20,1,6,22)     =        -0.660621	     -37.850783
	 D(20,1,6,23)     =        -2.750604	    -157.597986
	 D(21,1,2,25)     =        -1.421454	     -81.443309
	 D(21,1,2,26)     =         0.677651	      38.826560
	 D(21,1,6,22)     =         1.429915	      81.928087
	 D(21,1,6,23)     =        -0.660068	     -37.819116
	 D(22,6,5,24)     =        -0.012801	      -0.733441
	 D(22,6,5,27)     =        -1.590384	     -91.122317
	 D(23,6,5,24)     =         2.073506	     118.803150
	 D(23,6,5,27)     =         0.495923	      28.414274

	Current energy   :      -579.4035484807

	Generating empirical Hessian (Schlegel '84) for each fragment.
	Taking PRFO optimization step.
	Maximizing along 1 lowest eigenvalue of Hessian.

 RFO min eigenvalues
 -0.140128 -0.000000 -0.000000 -0.000000 -0.000000 -0.000000 -0.000000 -0.000000
 -0.000000 -0.000000 -0.000000 -0.000000 -0.000000 -0.000000 -0.000000 -0.000000
 -0.000000 -0.000000 -0.000000 -0.000000 -0.000000 -0.000000 -0.000000 -0.000000
 -0.000000 -0.000000 -0.000000 -0.000000 -0.000000 -0.000000 -0.000000 -0.000000
 -0.000000 -0.000000 -0.000000 -0.000000 -0.000000 -0.000000 -0.000000 -0.000000
 -0.000000 -0.000000 -0.000000 -0.000000 -0.000000 -0.000000 -0.000000 -0.000000
 -0.000000 -0.000000 -0.000000 -0.000000 -0.000000  0.000000  0.000000  0.000000
  0.000000  0.000000  0.000000  0.000000  0.000000  0.000000  0.000000  0.000000
  0.000000  0.000000  0.000000  0.000000  0.000000  0.000000  0.000000  0.000000
  0.000000  0.000000  0.000000  0.000000  0.000000  0.000000  0.000000  0.000000
  0.000000  0.000000  0.000000  0.000000  0.000000  0.000000  0.000000  0.000000
  0.000000  0.000000  0.000000  0.000000  0.000000  0.000000  0.000000  0.000000
  0.000000  0.000000  0.000000  0.000000  0.000000  0.000000  0.000000  0.000000
  0.000000  0.000000  0.000000  0.000000  0.000000  0.000000  0.000000  0.000000
  0.000000  0.000000  0.000000  0.003291  0.004946  0.005867  0.006304  0.007591
  0.012456  0.014101  0.015743  0.016171  0.017010  0.017273  0.017347  0.017506
  0.017564  0.017607  0.017656  0.018447  0.020657  0.023956  0.029075  0.031207
  0.040602  0.045052  0.049706  0.052575  0.057727  0.058522  0.065230  0.069853
  0.070013  0.072674  0.080716  0.082030  0.082894  0.088434  0.100364  0.100703
  0.102747  0.107526  0.112452  0.159988  0.159996  0.159999  0.160000  0.160000
  0.160000  0.160840  0.169899  0.201424  0.203805  0.220020  0.229738  0.239970
  0.249825  0.249999  0.263701  0.267136  0.271797  0.278496  0.292870  0.301997
  0.331248  0.331448  0.331691  0.332348  0.333673  0.335129  0.336021  0.341836
  0.342232  0.342721  0.343071  0.343405  0.343776  0.346241  0.349284  0.349285
  0.349474  0.407457  0.409583  0.442352  0.445846  0.448865  0.451838  0.456998
  0.491141  0.868840

 RFO max eigenvalues
 -0.000000  0.000000
	Change in coordinate exceeds step limit of    0.50000.
	Scaling displacements by    0.65241
	|RFO target step|  :        0.5000000000
	RFO gradient       :       -0.1828428515
	RFO hessian        :        0.1801021352
	Projected Delta(E) :       -0.0551269271

	Back-transformation to cartesian coordinates...
	Could not converge backtransformation.
	Using first guess instead.

	--- Internal Coordinate Step in ANG or DEG, aJ/ANG or AJ/DEG ---
	 ---------------------------------------------------------------------------
	   Coordinate                Previous        Force       Change         New 
	   ----------                --------       ------       ------       ------
	    1 R(1,2)          =      1.541497    -0.019148    -0.003877     1.537619
	    2 R(1,6)          =      1.542578    -0.076240    -0.007482     1.535097
	    3 R(1,20)         =      1.104562    -0.093190    -0.007728     1.096834
	    4 R(1,21)         =      1.103224    -0.104230    -0.009010     1.094213
	    5 R(2,3)          =      1.540368    -0.028713    -0.003496     1.536872
	    6 R(2,25)         =      1.101447    -0.103504    -0.008945     1.092502
	    7 R(2,26)         =      1.105052    -0.093046    -0.008007     1.097044
	    8 R(3,4)          =      1.513864    -0.120380    -0.018216     1.495649
	    9 R(3,5)          =      1.531517     0.062010     0.009344     1.540862
	   10 R(3,7)          =      1.493061    -0.146989    -0.012860     1.480200
	   11 R(4,5)          =      1.516364     0.198437     0.024899     1.541263
	   12 R(4,18)         =      1.093684    -0.089377    -0.007729     1.085956
	   13 R(4,19)         =      1.095255    -0.090835    -0.007629     1.087626
	   14 R(5,6)          =      1.528565     0.255116     0.027127     1.555692
	   15 R(5,24)         =      1.094085    -0.065478    -0.005446     1.088639
	   16 R(5,27)         =      0.879286     2.344009     0.107744     0.987030
	   17 R(6,22)         =      1.101604    -0.098804    -0.008318     1.093286
	   18 R(6,23)         =      1.104820    -0.081791    -0.006780     1.098039
	   19 R(7,8)          =      1.410776    -0.138006    -0.010054     1.400722
	   20 R(7,12)         =      1.408159    -0.169258    -0.011948     1.396211
	   21 R(8,9)          =      1.402754    -0.194433    -0.013631     1.389123
	   22 R(8,17)         =      1.095590    -0.093129    -0.007756     1.087834
	   23 R(9,10)         =      1.405485    -0.097587    -0.006723     1.398762
	   24 R(9,16)         =      1.094416    -0.101642    -0.008592     1.085824
	   25 R(10,11)        =      1.404001     0.005680     0.001048     1.405048
	   26 R(10,15)        =      1.380001    -0.073029    -0.002905     1.377095
	   27 R(11,12)        =      1.404592    -0.145308    -0.009830     1.394762
	   28 R(11,14)        =      1.094422    -0.168551    -0.013702     1.080720
	   29 R(12,13)        =      1.094786    -0.090118    -0.007645     1.087141
	   30 R(15,28)        =      1.400000     0.154706     0.035025     1.435024
	   31 R(28,29)        =      1.089000    -0.043907     0.021635     1.110635
	   32 R(28,30)        =      1.089000    -0.015672     0.007930     1.096930
	   33 R(28,31)        =      1.089001    -0.015644     0.008171     1.097172
	   34 B(1,2,3)        =    104.676198     0.000593     0.725428   105.401625
	   35 B(1,2,25)       =    112.414409    -0.000349    -0.573678   111.840731
	   36 B(1,2,26)       =    110.858094     0.000093     0.389106   111.247200
	   37 B(1,6,5)        =    104.236043    -0.000323    -0.199020   104.037023
	   38 B(1,6,22)       =    112.123910     0.000461     0.649293   112.773203
	   39 B(1,6,23)       =    110.745342    -0.000122    -0.231442   110.513901
	   40 B(2,1,6)        =    104.691617     0.000247     0.239854   104.931471
	   41 B(2,1,20)       =    108.690913    -0.000023     0.078502   108.769415
	   42 B(2,1,21)       =    113.419580    -0.000006     0.064131   113.483711
	   43 B(2,3,4)        =    115.585685     0.000159     0.518788   116.104473
	   44 B(2,3,5)        =    106.277162    -0.000245    -0.188274   106.088888
	   45 B(2,3,7)        =    118.763664     0.000456     0.445879   119.209542
	   46 B(3,2,25)       =    110.963570    -0.000342    -0.560609   110.402961
	   47 B(3,2,26)       =    110.530986    -0.000156    -0.185001   110.345985
	   48 B(3,4,5)        =     60.717500     0.000083     0.239199    60.956699
	   49 B(3,4,18)       =    117.415782     0.000093     0.175842   117.591624
	   50 B(3,4,19)       =    117.862942    -0.000163    -0.171552   117.691389
	   51 B(3,5,4)        =     59.560564    -0.000919    -1.500819    58.059745
	   52 B(3,5,6)        =    108.227717    -0.000282    -0.655824   107.571894
	   53 B(3,5,24)       =    119.266883     0.000172    -0.006554   119.260329
	   54 B(3,5,27)       =    130.586085    -0.000645    -1.151930   129.434155
	   55 B(3,7,8)        =    119.888038     0.000029     0.072143   119.960181
	   56 B(3,7,12)       =    121.458574    -0.000291    -0.332565   121.126009
	   57 B(4,3,5)        =     59.721936     0.000836     1.261621    60.983557
	   58 B(4,3,7)        =    120.345328    -0.000615    -0.913103   119.432224
	   59 B(4,5,6)        =    117.415187     0.000163     0.560083   117.975270
	   60 B(4,5,24)       =    117.384025     0.000228     0.335428   117.719453
	   61 B(4,5,27)       =     75.915795     0.000159     0.064842    75.980637
	   62 B(5,3,7)        =    121.805252    -0.000556    -0.945283   120.859969
	   63 B(5,4,18)       =    117.067911    -0.000191    -0.533455   116.534457
	   64 B(5,4,19)       =    117.630648    -0.000251    -0.585227   117.045421
	   65 B(5,6,22)       =    111.713517    -0.000092    -0.353147   111.360369
	   66 B(5,6,23)       =    110.837597     0.000072    -0.022704   110.814893
	   67 B(6,1,20)       =    108.731493    -0.000065    -0.152884   108.578609
	   68 B(6,1,21)       =    113.499740    -0.000238    -0.358549   113.141191
	   69 B(6,5,24)       =    119.981893     0.000067     0.127999   120.109893
	   70 B(6,5,27)       =     72.826578     0.000696     1.893321    74.719899
	   71 B(7,8,9)        =    120.809467    -0.000036    -0.135584   120.673883
	   72 B(7,8,17)       =    119.129487     0.000228     0.412672   119.542159
	   73 B(7,12,11)      =    120.758819     0.000019     0.022205   120.781025
	   74 B(7,12,13)      =    119.142292     0.000153     0.256953   119.399246
	   75 B(8,7,12)       =    118.621159     0.000261     0.257021   118.878180
	   76 B(8,9,10)       =    120.048921     0.000341     0.465778   120.514699
	   77 B(8,9,16)       =    119.906259    -0.000031    -0.002099   119.904160
	   78 B(9,8,17)       =    120.057181    -0.000192    -0.276562   119.780619
	   79 B(9,10,11)      =    119.650243    -0.000530    -0.596326   119.053917
	   80 B(9,10,15)      =    120.159918    -0.002936    -3.740978   116.418939
	   81 B(10,9,16)      =    120.043517    -0.000310    -0.463312   119.580205
	   82 B(10,11,12)     =    120.110679    -0.000056    -0.012746   120.097933
	   83 B(10,11,14)     =    120.030779     0.000658     1.064039   121.094818
	   84 B(10,15,28)     =    109.471181     0.006109     7.482456   116.953637
	   85 B(11,10,15)     =    120.189615     0.003465     4.337399   124.527014
	   86 B(11,12,13)     =    120.098614    -0.000172    -0.279808   119.818806
	   87 B(12,11,14)     =    119.858405    -0.000602    -1.051292   118.807113
	   88 B(15,28,29)     =    109.471185    -0.000971    -1.749015   107.722170
	   89 B(15,28,30)     =    109.471281     0.000642     1.471228   110.942509
	   90 B(15,28,31)     =    109.471237     0.000645     1.473223   110.944460
	   91 B(18,4,19)      =    115.306264     0.000278     0.572697   115.878960
	   92 B(20,1,21)      =    107.655190     0.000085     0.129276   107.784466
	   93 B(22,6,23)      =    107.243849     0.000001     0.142253   107.386102
	   94 B(24,5,27)      =     98.810586     0.000122     0.393358    99.203944
	   95 B(25,2,26)      =    107.438837     0.000152     0.192157   107.630994
	   96 B(29,28,30)     =    109.471277    -0.000159    -0.024990   109.446287
	   97 B(29,28,31)     =    109.471158    -0.000163    -0.014279   109.456879
	   98 B(30,28,31)     =    109.471186     0.000006    -1.159363   108.311823
	   99 D(1,2,3,4)      =    -85.226572    -0.000162    -1.461560   -86.688132
	  100 D(1,2,3,5)      =    -21.493186     0.000033    -0.083441   -21.576627
	  101 D(1,2,3,7)      =    120.375901    -0.000124    -1.339029   119.036871
	  102 D(1,6,5,3)      =     19.632931     0.000022    -0.031210    19.601720
	  103 D(1,6,5,4)      =     84.161501    -0.000240    -1.956254    82.205248
	  104 D(1,6,5,24)     =   -122.015351     0.000022     0.692232  -121.323120
	  105 D(1,6,5,27)     =    147.595773    -0.000099    -0.824055   146.771718
	  106 D(2,1,6,5)      =    -32.864999     0.000007    -0.017922   -32.882921
	  107 D(2,1,6,22)     =   -153.873654     0.000021     0.183915  -153.689739
	  108 D(2,1,6,23)     =     86.379143    -0.000031    -0.273618    86.105525
	  109 D(2,3,4,5)      =     94.605460    -0.000006     0.047152    94.652612
	  110 D(2,3,4,18)     =   -158.126276    -0.000061    -0.580699  -158.706975
	  111 D(2,3,4,19)     =    -13.152074     0.000040     0.590667   -12.561407
	  112 D(2,3,5,4)      =   -110.516925    -0.000089    -0.810214  -111.327139
	  113 D(2,3,5,6)      =      1.121217    -0.000039     0.034887     1.156104
	  114 D(2,3,5,24)     =    143.089359    -0.000049    -0.617917   142.471442
	  115 D(2,3,5,27)     =    -81.570010    -0.000166    -1.680097   -83.250107
	  116 D(2,3,7,8)      =    -68.830845     0.000058     0.572259   -68.258586
	  117 D(2,3,7,12)     =    109.075519     0.000051     0.470354   109.545873
	  118 D(3,2,1,6)      =     33.770540     0.000056     0.428289    34.198830
	  119 D(3,2,1,20)     =    -82.280465     0.000047     0.446758   -81.833707
	  120 D(3,2,1,21)     =    158.019943     0.000027     0.187840   158.207783
	  121 D(3,4,5,6)      =    -95.964306     0.000198     1.852501   -94.111805
	  122 D(3,4,5,24)     =    109.524357    -0.000047    -0.675015   108.849342
	  123 D(3,4,5,27)     =   -157.731045    -0.000009    -0.264704  -157.995749
	  124 D(3,5,4,18)     =   -107.834530    -0.000051    -0.519152  -108.353682
	  125 D(3,5,4,19)     =    108.134828    -0.000014     0.124630   108.259458
	  126 D(3,5,6,22)     =    140.914841     0.000092     0.436519   141.351361
	  127 D(3,5,6,23)     =    -99.548568     0.000089     0.367609   -99.180959
	  128 D(3,7,8,9)      =    178.092997    -0.000009    -0.110850   177.982147
	  129 D(3,7,8,17)     =     -2.621861    -0.000005    -0.062260    -2.684122
	  130 D(3,7,12,11)    =   -178.236678     0.000013     0.179627  -178.057052
	  131 D(3,7,12,13)    =      1.572949     0.000001     0.019638     1.592587
	  132 D(4,3,2,25)     =    153.276932    -0.000106    -0.907733   152.369200
	  133 D(4,3,2,26)     =     34.186976    -0.000076    -0.672644    33.514332
	  134 D(4,3,5,6)      =    111.638142     0.000051     0.845101   112.483243
	  135 D(4,3,5,24)     =   -106.393716     0.000040     0.192297  -106.201418
	  136 D(4,3,5,27)     =     28.946915    -0.000077    -0.869883    28.077032
	  137 D(4,3,7,8)      =    138.017151     0.000047     0.309974   138.327125
	  138 D(4,3,7,12)     =    -44.076485     0.000040     0.208069   -43.868415
	  139 D(4,5,3,7)      =    109.044759    -0.000037    -0.190794   108.853965
	  140 D(4,5,6,22)     =   -154.556588    -0.000170    -1.488524  -156.045112
	  141 D(4,5,6,23)     =    -35.019998    -0.000172    -1.557434   -36.577431
	  142 D(5,3,2,25)     =   -142.989682     0.000089     0.470387  -142.519295
	  143 D(5,3,2,26)     =     97.920361     0.000118     0.705476    98.625837
	  144 D(5,3,4,18)     =    107.268264    -0.000055    -0.627852   106.640412
	  145 D(5,3,4,19)     =   -107.757534     0.000047     0.543515  -107.214020
	  146 D(5,3,7,8)      =     66.947624    -0.000076    -0.461446    66.486178
	  147 D(5,3,7,12)     =   -115.146011    -0.000083    -0.563351  -115.709362
	  148 D(5,4,3,7)      =   -111.430967     0.000024     0.298236  -111.132731
	  149 D(5,6,1,20)     =     83.157872     0.000022     0.123389    83.281261
	  150 D(5,6,1,21)     =   -157.063259     0.000002    -0.046475  -157.109733
	  151 D(6,1,2,25)     =    154.307289     0.000003    -0.109839   154.197449
	  152 D(6,1,2,26)     =    -85.422842     0.000008     0.014337   -85.408505
	  153 D(6,5,3,7)      =   -139.317099     0.000014     0.654307  -138.662792
	  154 D(6,5,4,18)     =    156.201164     0.000147     1.333349   157.534513
	  155 D(6,5,4,19)     =     12.170522     0.000184     1.977131    14.147653
	  156 D(7,3,2,25)     =     -1.120595    -0.000068    -0.785202    -1.905797
	  157 D(7,3,2,26)     =   -120.210552    -0.000038    -0.550113  -120.760665
	  158 D(7,3,4,18)     =     -4.162703    -0.000031    -0.329616    -4.492319
	  159 D(7,3,4,19)     =    140.811498     0.000070     0.841751   141.653249
	  160 D(7,3,5,24)     =      2.651043     0.000003     0.001504     2.652547
	  161 D(7,3,5,27)     =    137.991674    -0.000113    -1.060676   136.930998
	  162 D(7,8,9,10)     =      0.074700    -0.000004    -0.051243     0.023457
	  163 D(7,8,9,16)     =    179.659684     0.000001     0.010510   179.670194
	  164 D(7,12,11,10)   =      0.280010    -0.000007    -0.101466     0.178544
	  165 D(7,12,11,14)   =   -179.854428    -0.000007    -0.099432  -179.953861
	  166 D(8,7,12,11)    =     -0.304531     0.000005     0.075208    -0.229324
	  167 D(8,7,12,13)    =    179.505096    -0.000006    -0.084781   179.420315
	  168 D(8,9,10,11)    =     -0.102888     0.000002     0.026661    -0.076226
	  169 D(8,9,10,15)    =    179.725411     0.000006     0.073165   179.798577
	  170 D(9,8,7,12)     =      0.127485     0.000000     0.000995     0.128480
	  171 D(9,10,11,12)   =     -0.072650     0.000004     0.048891    -0.023759
	  172 D(9,10,11,14)   =   -179.937978     0.000004     0.049706  -179.888272
	  173 D(9,10,15,28)   =    180.000000    -0.000001    -0.010419   179.989581
	  174 D(10,9,8,17)    =   -179.203838    -0.000008    -0.104856  -179.308694
	  175 D(10,11,12,13)  =   -179.527802     0.000004     0.058169  -179.469633
	  176 D(10,15,28,29)  =    180.000000     0.000001     0.021785   180.021785
	  177 D(10,15,28,30)  =    -59.999960    -0.000090    -0.207309   -60.207269
	  178 D(10,15,28,31)  =     60.000045     0.000092     0.236715    60.236759
	  179 D(11,10,9,16)   =   -179.687298    -0.000003    -0.036805  -179.724103
	  180 D(11,10,15,28)  =     -0.172655     0.000002     0.029395    -0.143260
	  181 D(12,7,8,17)    =    179.412627     0.000004     0.049585   179.462212
	  182 D(12,11,10,15)  =   -179.900897     0.000002     0.013231  -179.887666
	  183 D(13,12,11,14)  =      0.337760     0.000004     0.060202     0.397962
	  184 D(14,11,10,15)  =      0.233774     0.000002     0.014047     0.247822
	  185 D(15,10,9,16)   =      0.141001     0.000001     0.009699     0.150700
	  186 D(16,9,8,17)    =      0.381147    -0.000003    -0.043103     0.338043
	  187 D(18,4,5,24)    =      1.689827    -0.000098    -1.194167     0.495660
	  188 D(18,4,5,27)    =     94.434426    -0.000059    -0.783856    93.650569
	  189 D(19,4,5,24)    =   -142.340815    -0.000061    -0.550384  -142.891200
	  190 D(19,4,5,27)    =    -49.596217    -0.000022    -0.140074   -49.736291
	  191 D(20,1,2,25)    =     38.256283    -0.000006    -0.091371    38.164913
	  192 D(20,1,2,26)    =    158.526152    -0.000001     0.032806   158.558958
	  193 D(20,1,6,22)    =    -37.850783     0.000037     0.325226   -37.525557
	  194 D(20,1,6,23)    =   -157.597986    -0.000015    -0.132307  -157.730293
	  195 D(21,1,2,25)    =    -81.443309    -0.000026    -0.350288   -81.793597
	  196 D(21,1,2,26)    =     38.826560    -0.000021    -0.226112    38.600448
	  197 D(21,1,6,22)    =     81.928087     0.000017     0.155363    82.083449
	  198 D(21,1,6,23)    =    -37.819116    -0.000035    -0.302171   -38.121287
	  199 D(22,6,5,24)    =     -0.733441     0.000092     1.159961     0.426521
	  200 D(22,6,5,27)    =    -91.122317    -0.000029    -0.356325   -91.478642
	  201 D(23,6,5,24)    =    118.803150     0.000089     1.091052   119.894201
	  202 D(23,6,5,27)    =     28.414274    -0.000031    -0.425235    27.989039
	 ---------------------------------------------------------------------------
	Successfully symmetrized geometry.

  ==> Convergence Check <==

  Measures of convergence in internal coordinates in au.
  Criteria marked as inactive (o), active & met (*), and active & unmet ( ).
  --------------------------------------------------------------------------------------------- ~
   Step     Total Energy     Delta E     MAX Force     RMS Force      MAX Disp      RMS Disp    ~
  --------------------------------------------------------------------------------------------- ~
    Convergence Criteria    1.00e-06 *    3.00e-04 *             o    1.20e-03 *             o  ~
  --------------------------------------------------------------------------------------------- ~
      1    -579.40354848   -5.79e+02      2.85e-01      2.23e-02 o    2.04e-01      2.33e-02 o  ~
  ---------------------------------------------------------------------------------------------

	Writing optimization data to binary file.
	Structure for next step:
	Cartesian Geometry (in Angstrom)
	    C     3.6085442356   0.5914213278   0.7295648309
	    C     2.3723042235   1.4403426842   0.3899825732
	    C     1.5378233149   0.5797189161  -0.5717576650
	    C     1.8861010114   0.6877500637  -2.0222738503
	    C     2.5131321709  -0.4438056782  -1.1844767973
	    C     3.9130475230  -0.1947384547  -0.5533038463
	    C     0.1667440766   0.1820774552  -0.1805846476
	    C    -0.0261483617  -0.7188492315   0.8744726071
	    C    -1.3071144849  -1.0700946942   1.2811838289
	    C    -2.4282121860  -0.5296391233   0.6427626534
	    C    -2.2406194431   0.3754480687  -0.4154373389
	    C    -0.9513410843   0.7248554205  -0.8167323166
	    H    -0.8114619708   1.4322059127  -1.6303440770
	    H    -3.0832488165   0.8142252552  -0.9306133875
	    O    -3.6567792601  -0.9390205527   1.1111872473
	    H    -1.4421738970  -1.7738087089   2.0970022408
	    H     0.8373406549  -1.1550253551   1.3719861346
	    H     1.1297206632   0.3947983661  -2.7443321647
	    H     2.5422096456   1.5005167656  -2.3253610847
	    H     3.3416248854  -0.1201464076   1.5204322413
	    H     4.4588544025   1.1817732560   1.0841916734
	    H     4.4354440855  -1.1353423029  -0.3592912342
	    H     4.5449934253   0.3985691229  -1.2273372344
	    H     2.1705881843  -1.4604250899  -1.3696328197
	    H     1.7913999274   1.6872697527   1.2816874904
	    H     2.6578971951   2.3834323780  -0.0922255989
	    H     3.1290300464  -0.3429994379  -1.9491575949
	    C    -4.8149003424  -0.3914173775   0.4645182028
	    H    -5.7124300783  -0.8202137173   0.9585670707
	    H    -4.8349064475   0.7015249231   0.5557990275
	    H    -4.8269091421  -0.6485368994  -0.6020330940
			--------------------------
			 OPTKING Finished Execution 
			--------------------------

    Structure for next step:
    Molecular point group: c1
    Full point group: C1

    Geometry (in Angstrom), charge = 1, multiplicity = 1:

    C            3.594420237776     0.576411026489     0.745249564344
    C            2.358180220892     1.425332386280     0.405667305306
    C            1.523699309017     0.564708614781    -0.556072936634
    C            1.871977006900     0.672739762758    -2.006589127622
    C            2.499008168807    -0.458815983569    -1.168792071331
    C            3.898923526405    -0.209748759094    -0.537619117877
    C            0.152620065286     0.167067152288    -0.164899917688
    C           -0.040272373781    -0.733859537959     0.890157341122
    C           -1.321238501979    -1.085105002027     1.296868564485
    C           -2.442336207512    -0.544649428973     0.658447386546
    C           -2.254743463830     0.360437766588    -0.399752609983
    C           -0.965465099970     0.709845119786    -0.801047589183
    H           -0.825585985926     1.417195614766    -1.614659352825
    H           -3.097372840626     0.799214954822    -0.914928660597
    O           -3.670903286395    -0.954030859962     1.126871982206
    H           -1.456297914626    -1.788819019462     2.112686979586
    H            0.823216646202    -1.170035663260     1.387670870592
    H            1.115596655722     0.379788064041    -2.728647444888
    H            2.528085643633     1.485506467849    -2.309676363300
    H            3.327500886555    -0.135156711653     1.536116977838
    H            4.444730408029     1.166762957023     1.099876408200
    H            4.421320090963    -1.150352611018    -0.343606505043
    H            4.530869431193     0.383558820905    -1.211652508632
    H            2.156464180888    -1.475435399201    -1.353948094494
    H            1.777275922493     1.672259455742     1.297372226009
    H            2.643773193563     2.368422083799    -0.076540868648
    H            3.114906046765    -0.358009742844    -1.933472871951
    C           -4.829024373312    -0.406427682607     0.480202935194
    H           -5.726554112707    -0.835224024088     0.974251805077
    H           -4.849030478495     0.686514622237     0.571483760269
[...]
	  198 D(21,1,6,23)    =    -51.904901    -0.000000    -0.058321   -51.963222
	  199 D(22,6,5,24)    =     56.666080     0.000000     0.055939    56.722019
	  200 D(22,6,5,27)    =    -65.532885    -0.000000     0.031754   -65.501131
	  201 D(23,6,5,24)    =    174.149373     0.000000     0.054571   174.203944
	  202 D(23,6,5,27)    =     51.950408    -0.000000     0.030386    51.980795
	 ---------------------------------------------------------------------------
	Successfully symmetrized geometry.

  ==> Convergence Check <==

  Measures of convergence in internal coordinates in au.
  Criteria marked as inactive (o), active & met (*), and active & unmet ( ).
  ---------------------------------------------------------------------------------------------
   Step     Total Energy     Delta E     MAX Force     RMS Force      MAX Disp      RMS Disp   
  ---------------------------------------------------------------------------------------------
    Convergence Criteria    1.00e-06 *    3.00e-04 *             o    1.20e-03 *             o
  ---------------------------------------------------------------------------------------------
     54    -579.53196708   -8.97e-07 *    1.24e-04 *    1.94e-05 o    1.04e-03 *    3.65e-04 o  ~
  ---------------------------------------------------------------------------------------------


  **** Optimization is complete! (in 54 steps) ****

  ==> Optimization Summary <==

  Measures of convergence in internal coordinates in au.
  --------------------------------------------------------------------------------------------------------------- ~
   Step         Total Energy             Delta E       MAX Force       RMS Force        MAX Disp        RMS Disp  ~
  --------------------------------------------------------------------------------------------------------------- ~
      1    -579.403548480695   -579.403548480695      0.28451122      0.02229312      0.20360637      0.02326818  ~
      2    -579.461660331117     -0.058111850422      0.11495922      0.00956407      0.13429762      0.03215822  ~
      3    -579.489117907209     -0.027457576091      0.04483292      0.00445735      0.12085829      0.03150514  ~
      4    -579.502538000186     -0.013420092977      0.01721755      0.00217390      0.14000849      0.03382872  ~
      5    -579.510913860860     -0.008375860674      0.00730522      0.00131420      0.12860561      0.03499048  ~
      6    -579.515656554159     -0.004742693299      0.01708329      0.00151739      0.14350641      0.03508821  ~
      7    -579.519331457082     -0.003674902923      0.02265670      0.00187202      0.14555119      0.03515276  ~
      8    -579.523586188591     -0.004254731509      0.02247664      0.00189500      0.10009922      0.02570305  ~
      9    -579.527068414854     -0.003482226263      0.01991288      0.00181222      0.14175930      0.03517215  ~
     10    -579.523716516294      0.003351898560      0.01982648      0.00168075      0.09445552      0.02413133  ~
     11    -579.526630794165     -0.002914277871      0.01912807      0.00171472      0.18166287      0.03518964  ~
     12    -579.524485513411      0.002145280754      0.01695636      0.00197617      0.18723376      0.03512073  ~
     13    -579.523507135635      0.000978377776      0.01482887      0.00189429      0.13752894      0.03517776  ~
     14    -579.521927771476      0.001579364159      0.01211643      0.00130300      0.11276411      0.03517815  ~
     15    -579.520283653415      0.001644118061      0.00933781      0.00102842      0.10960787      0.03517436  ~
     16    -579.518731937894      0.001551715521      0.00659558      0.00084479      0.09410851      0.02681633  ~
     17    -579.520913366159     -0.002181428265      0.00673831      0.00083458      0.10917012      0.03516829  ~
     18    -579.519542452310      0.001370913848      0.00299328      0.00066048      0.11241673      0.03517121  ~
     19    -579.517828537472      0.001713914839      0.00273320      0.00055184      0.11554183      0.03517229  ~
     20    -579.515825232825      0.002003304647      0.00276027      0.00049763      0.13835192      0.03516889  ~
     21    -579.514156712551      0.001668520274      0.00344359      0.00053236      0.18210891      0.03517727  ~
     22    -579.513358307436      0.000798405115      0.00515817      0.00076728      0.22129074      0.03517788  ~
     23    -579.514773999803     -0.001415692367      0.00833093      0.00126265      0.13567057      0.03517481  ~
     24    -579.515468717819     -0.000694718016      0.00643446      0.00114722      0.10387641      0.03517584  ~
     25    -579.518623538758     -0.003154820939      0.00909304      0.00126637      0.15932382      0.03517211  ~
     26    -579.518952988111     -0.000329449353      0.00571292      0.00110393      0.17890282      0.03517132  ~
     27    -579.519359991674     -0.000407003563      0.00615983      0.00098546      0.16944421      0.03517221  ~
     28    -579.520932275664     -0.001572283990      0.00653374      0.00094839      0.15902363      0.03517776  ~
     29    -579.523376774297     -0.002444498633      0.00513741      0.00088468      0.13816017      0.03517453  ~
     30    -579.526388344964     -0.003011570667      0.00421087      0.00084890      0.11022860      0.03517020  ~
     31    -579.529754238821     -0.003365893857      0.00353077      0.00084886      0.11238584      0.03518190  ~
     32    -579.531935865991     -0.002181627170      0.00449344      0.00096155      0.22105456      0.03519540  ~
     33    -579.529129361377      0.002806504614      0.00858196      0.00136855      0.21281856      0.03524751  ~
     34    -579.528726796383      0.000402564994      0.00749347      0.00132567      0.10196295      0.03519178  ~
     35    -579.530363314946     -0.001636518564      0.00265617      0.00065315      0.11387090      0.02761288  ~
     36    -579.530963691118     -0.000600376171      0.00282616      0.00055412      0.07445492      0.01686993  ~
     37    -579.531067812623     -0.000104121505      0.00265288      0.00044844      0.03263423      0.00708731  ~
     38    -579.531217301086     -0.000149488463      0.00114032      0.00025701      0.01882065      0.00674770  ~
     39    -579.531284007079     -0.000066705993      0.00119578      0.00022513      0.04861457      0.01582521  ~
     40    -579.531287791105     -0.000003784026      0.00165919      0.00033117      0.05075239      0.00976372  ~
     41    -579.531377736603     -0.000089945498      0.00190807      0.00033165      0.02280332      0.00665943  ~
     42    -579.531465211985     -0.000087475382      0.00123314      0.00026139      0.04179943      0.00936130  ~
     43    -579.531517109004     -0.000051897019      0.00146329      0.00028156      0.07207240      0.01883971  ~
     44    -579.531517827471     -0.000000718467      0.00193994      0.00034122      0.02142657      0.00640090  ~
     45    -579.531657633387     -0.000139805916      0.00177575      0.00025600      0.03171349      0.00862062  ~
     46    -579.531761807523     -0.000104174136      0.00098889      0.00021444      0.04824234      0.01530388  ~
     47    -579.531855306438     -0.000093498915      0.00120380      0.00018037      0.02642855      0.00654194  ~
     48    -579.531897494366     -0.000042187928      0.00110127      0.00018043      0.08774222      0.02579682  ~
     49    -579.531720925777      0.000176568589      0.00276638      0.00038964      0.04850914      0.01637805  ~
     50    -579.531941565362     -0.000220639585      0.00056749      0.00011661      0.00600563      0.00158221  ~
     51    -579.531956217015     -0.000014651653      0.00038278      0.00005930      0.01148161      0.00333415  ~
     52    -579.531964181013     -0.000007963999      0.00026341      0.00004283      0.00650844      0.00146684  ~
     53    -579.531966186188     -0.000002005175      0.00021244      0.00002900      0.00344506      0.00087460  ~
     54    -579.531967082830     -0.000000896642      0.00012404      0.00001936      0.00103987      0.00036509  ~
  --------------------------------------------------------------------------------------------------------------- ~

	Writing optimization data to binary file.
	Final energy is   -579.5319670828297
	Final (previous) structure:
	Cartesian Geometry (in Angstrom)
	    C     3.0329820706   0.4627078127   1.2283154363
	    C     2.1351319248   1.6239746934   0.5870502201
	    C     1.4589212304   0.8509694665  -0.4130911088
	    C     2.1840767312   0.4781378235  -1.5924837352
	    C     3.0842828861  -0.6899825023  -0.9708048883
	    C     3.9137195196  -0.1487743341   0.1673328043
	    C     0.1456167111   0.2922941632  -0.1491307162
	    C    -0.0846690975  -0.9279954676   0.4877786710
	    C    -1.3782895641  -1.3631880363   0.6865986688
	    C    -2.4644545149  -0.5997821587   0.2590928217
	    C    -2.2328281450   0.6186561861  -0.3770358975
	    C    -0.9352176388   1.0611445564  -0.5794966232
	    H    -0.7754484557   2.0061151887  -1.0734419822
	    H    -3.0456771006   1.2312582269  -0.7185126064
	    O    -3.6731719345  -1.1157782168   0.5026409467
	    H    -1.5717681828  -2.3018815798   1.1760563770
	    H     0.7297410037  -1.5420238945   0.8295278233
	    H     1.5646745113   0.0566401490  -2.3724682242
	    H     2.8671800639   1.2392137379  -1.9511880668
	    H     2.3849266487  -0.2755946956   1.6892835900
	    H     3.5892036180   0.9578470046   2.0170141536
	    H     4.4947482969  -0.9571715307   0.6048281835
	    H     4.6199061403   0.5902370392  -0.2033642389
	    H     2.4406563085  -1.5025234931  -0.6493794944
	    H     1.4822383065   2.0168674193   1.3544746890
	    H     2.8221829659   2.3607654006   0.1876898092
	    H     3.6794690696  -1.0462281618  -1.8049257598
	    C    -4.8021937439  -0.3614102341   0.0778406766
	    H    -5.6662243686  -0.9431617168   0.3629983559
	    H    -4.8326830171   0.6036127395   0.5757015133
	    H    -4.7941587587  -0.2259653683  -0.9999545301
	Saving final (previous) structure.
	Cleaning optimization helper files.
			--------------------------
			 OPTKING Finished Execution 
			--------------------------

    Final optimized geometry and variables:
    Molecular point group: c1
    Full point group: C1

    Geometry (in Angstrom), charge = 1, multiplicity = 1:

    C            3.032982082568     0.462707814515     1.228315441109
    C            2.135131933176     1.623974699773     0.587050222434
    C            1.458921236118     0.850969469848    -0.413091110406
    C            2.184076739740     0.478137825357    -1.592483741457
    C            3.084282898194    -0.689982504982    -0.970804892107
    C            3.913719535024    -0.148774334716     0.167332804999
    C            0.145616711646     0.292294164372    -0.149130716739
    C           -0.084669097797    -0.927995471267     0.487778672925
    C           -1.378289569549    -1.363188041660     0.686598671525
    C           -2.464454524604    -0.599782161021     0.259092822683
    C           -2.232828153733     0.618656188495    -0.377035899014
    C           -0.935217642455     1.061144560572    -0.579496625477
    H           -0.775448458717     2.006115196605    -1.073441986434
    H           -3.045677112620     1.231258231706    -0.718512609226
    O           -3.673171948903    -1.115778221231     0.502640948627
    H           -1.571768189003    -2.301881588817     1.176056381653
    H            0.729741006544    -1.542023900542     0.829527826552
    H            1.564674517473     0.056640149253    -2.372468233478
    H            2.867180075217     1.239213742779    -1.951188074463
    H            2.384926658076    -0.275594696660     1.689283596671
    H            3.589203632157     0.957847008371     2.017014161572
    H            4.494748314525    -0.957171534512     0.604828185917
    H            4.619906158467     0.590237041482    -0.203364239689
    H            2.440656318055    -1.502523498980    -0.649379496964
    H            1.482238312309     2.016867427193     1.354474694365
    H            2.822182976954     2.360765409915     0.187689809893
    H            3.679469084110    -1.046228165928    -1.804925766890
    C           -4.802193762730    -0.361410235527     0.077840676878
    H           -5.666224390846    -0.943161720489     0.362998357278
    H           -4.832683036091     0.603612741860     0.575701515559
    H           -4.794158777512    -0.225965369142    -0.999954533987

	Removing binary optimization data file.
	Cleaning optimization helper files.


Properties will be evaluated at   0.000000,   0.000000,   0.000000 [a0]
OEProp: No title given, name of density matrix used for the following properties is 'DF-MP2 relaxed density'
  Mulliken Charges: (a.u.)
   Center  Symbol    Alpha    Beta     Spin     Total
       1     C     3.13814  3.13814  0.00000 -0.27627
       2     C     3.12835  3.12835  0.00000 -0.25669
       3     C     2.92590  2.92590  0.00000  0.14819
       4     C     3.12829  3.12829  0.00000 -0.25659
       5     C     3.13815  3.13815  0.00000 -0.27630
       6     C     3.12841  3.12841  0.00000 -0.25683
       7     C     2.96267  2.96267  0.00000  0.07465
       8     C     3.08580  3.08580  0.00000 -0.17160
       9     C     3.09012  3.09012  0.00000 -0.18024
      10     C     2.88773  2.88773  0.00000  0.22455
      11     C     3.10191  3.10191  0.00000 -0.20382
      12     C     3.08552  3.08552  0.00000 -0.17104
      13     H     0.41602  0.41602  0.00000  0.16795
      14     H     0.40835  0.40835  0.00000  0.18331
      15     O     4.09570  4.09570  0.00000 -0.19139
      16     H     0.40792  0.40792  0.00000  0.18415
      17     H     0.41562  0.41562  0.00000  0.16875
      18     H     0.40159  0.40159  0.00000  0.19682
      19     H     0.40525  0.40525  0.00000  0.18951
      20     H     0.40780  0.40780  0.00000  0.18440
      21     H     0.40012  0.40012  0.00000  0.19976
      22     H     0.40377  0.40377  0.00000  0.19246
      23     H     0.42080  0.42080  0.00000  0.15839
      24     H     0.40792  0.40792  0.00000  0.18417
      25     H     0.40147  0.40147  0.00000  0.19706
      26     H     0.40522  0.40522  0.00000  0.18956
      27     H     0.40021  0.40021  0.00000  0.19958
      28     C     3.09777  3.09777  0.00000 -0.19554
      29     H     0.41606  0.41606  0.00000  0.16789
      30     H     0.44370  0.44370  0.00000  0.11260
      31     H     0.44373  0.44373  0.00000  0.11254

   Total alpha = 51.00000, Total beta = 51.00000, Total charge =  1.00000

    Molecular point group: c1
    Full point group: C1

    Geometry (in Angstrom), charge = 1, multiplicity = 1:

       Center              X                  Y                   Z               Mass       
    ------------   -----------------  -----------------  -----------------  -----------------
         C            3.032982082568     0.462707814515     1.228315441109    12.000000000000
         C            2.135131933176     1.623974699773     0.587050222434    12.000000000000
         C            1.458921236118     0.850969469848    -0.413091110406    12.000000000000
         C            2.184076739740     0.478137825357    -1.592483741457    12.000000000000
         C            3.084282898194    -0.689982504982    -0.970804892107    12.000000000000
         C            3.913719535024    -0.148774334716     0.167332804999    12.000000000000
         C            0.145616711646     0.292294164372    -0.149130716739    12.000000000000
         C           -0.084669097797    -0.927995471267     0.487778672925    12.000000000000
         C           -1.378289569549    -1.363188041660     0.686598671525    12.000000000000
         C           -2.464454524604    -0.599782161021     0.259092822683    12.000000000000
         C           -2.232828153733     0.618656188495    -0.377035899014    12.000000000000
         C           -0.935217642455     1.061144560572    -0.579496625477    12.000000000000
         H           -0.775448458717     2.006115196605    -1.073441986434     1.007825032230
         H           -3.045677112620     1.231258231706    -0.718512609226     1.007825032230
         O           -3.673171948903    -1.115778221231     0.502640948627    15.994914619570
         H           -1.571768189003    -2.301881588817     1.176056381653     1.007825032230
         H            0.729741006544    -1.542023900542     0.829527826552     1.007825032230
         H            1.564674517473     0.056640149253    -2.372468233478     1.007825032230
         H            2.867180075217     1.239213742779    -1.951188074463     1.007825032230
         H            2.384926658076    -0.275594696660     1.689283596671     1.007825032230
         H            3.589203632157     0.957847008371     2.017014161572     1.007825032230
         H            4.494748314525    -0.957171534512     0.604828185917     1.007825032230
         H            4.619906158467     0.590237041482    -0.203364239689     1.007825032230
         H            2.440656318055    -1.502523498980    -0.649379496964     1.007825032230
         H            1.482238312309     2.016867427193     1.354474694365     1.007825032230
         H            2.822182976954     2.360765409915     0.187689809893     1.007825032230
         H            3.679469084110    -1.046228165928    -1.804925766890     1.007825032230
         C           -4.802193762730    -0.361410235527     0.077840676878    12.000000000000
         H           -5.666224390846    -0.943161720489     0.362998357278     1.007825032230
         H           -4.832683036091     0.603612741860     0.575701515559     1.007825032230
         H           -4.794158777512    -0.225965369142    -0.999954533987     1.007825032230



  Variable Map:
  ----------------------------------------------------------------------------
  "CURRENT CORRELATION ENERGY"           =>      -2.563688283762
  "CURRENT DIPOLE X"                     =>       5.507324343917
  "CURRENT DIPOLE Y"                     =>       2.677827501556
  "CURRENT DIPOLE Z"                     =>      -1.279678880967
  "CURRENT ENERGY"                       =>    -579.531967082830
  "CURRENT REFERENCE ENERGY"             =>    -576.968278799068
  "CUSTOM SCS-MP2 CORRELATION ENERGY"    =>      -2.546308746832
  "CUSTOM SCS-MP2 TOTAL ENERGY"          =>    -579.514587545899
  "HF TOTAL ENERGY"                      =>    -576.968278799068
  "MP2 CORRELATION ENERGY"               =>      -2.563688283762
  "MP2 DOUBLES ENERGY"                   =>      -2.563688283762
  "MP2 OPPOSITE-SPIN CORRELATION ENERGY" =>      -1.952014598744
  "MP2 SAME-SPIN CORRELATION ENERGY"     =>      -0.611673685019
  "MP2 SINGLES ENERGY"                   =>      -0.000000000000
  "MP2 TOTAL ENERGY"                     =>    -579.531967082830
  "NUCLEAR REPULSION ENERGY"             =>     880.095204696554
  "ONE-ELECTRON ENERGY"                  =>   -2513.279183119555
  "OPTIMIZATION ITERATIONS"              =>      54.000000000000
  "PCM POLARIZATION ENERGY"              =>       0.000000000000
  "PE ENERGY"                            =>       0.000000000000
  "SCF DIPOLE X"                         =>       5.507324343917
  "SCF DIPOLE Y"                         =>       2.677827501556
  "SCF DIPOLE Z"                         =>      -1.279678880967
  "SCF ITERATION ENERGY"                 =>    -576.968278799068
  "SCF ITERATIONS"                       =>      12.000000000000
  "SCF TOTAL ENERGY"                     =>    -576.968278799068
  "SCS-MP2 CORRELATION ENERGY"           =>      -2.546308746832
  "SCS-MP2 TOTAL ENERGY"                 =>    -579.514587545899
  "TWO-ELECTRON ENERGY"                  =>    1056.215699623934



    Psi4 stopped on: Saturday, 11 December 2021 03:37PM
    Psi4 wall time for execution: 12:41:12.80

*** Psi4 exiting successfully. Buy a developer a beer!
