
    -----------------------------------------------------------------------
          Psi4: An Open-Source Ab Initio Electronic Structure Package
                               Psi4 1.4 release

                         Git: Rev {HEAD} 9485035 


    D. G. A. Smith, L. A. Burns, A. C. Simmonett, R. M. Parrish,
    M. C. Schieber, R. Galvelis, P. Kraus, H. Kruse, R. Di Remigio,
    A. Alenaizan, A. M. James, S. Lehtola, J. P. Misiewicz, M. Scheurer,
    R. A. Shaw, J. B. Schriber, Y. Xie, Z. L. Glick, D. A. Sirianni,
    J. S. O'Brien, J. M. Waldrop, A. Kumar, E. G. Hohenstein,
    B. P. Pritchard, B. R. Brooks, H. F. Schaefer III, A. Yu. Sokolov,
    K. Patkowski, A. E. DePrince III, U. Bozkaya, R. A. King,
    F. A. Evangelista, J. M. Turney, T. D. Crawford, C. D. Sherrill,
    J. Chem. Phys. 152(18) 184108 (2020). https://doi.org/10.1063/5.0006002

                            Additional Code Authors
    E. T. Seidl, C. L. Janssen, E. F. Valeev, M. L. Leininger,
    J. F. Gonthier, R. M. Richard, H. R. McAlexander, M. Saitow, X. Wang,
    P. Verma, and M. H. Lechner

             Previous Authors, Complete List of Code Contributors,
                       and Citations for Specific Modules
    https://github.com/psi4/psi4/blob/master/codemeta.json
    https://github.com/psi4/psi4/graphs/contributors
    http://psicode.org/psi4manual/master/introduction.html#citing-psifour

    -----------------------------------------------------------------------


    Psi4 started on: Tuesday, 23 November 2021 10:10PM

    Process ID: 1603504
    Host:       skystd35.palmetto.clemson.edu
    PSIDATADIR: /home/maxbuskirk/.conda/envs/psifour/share/psi4
    Memory:     500.0 MiB
    Threads:    1
    
  ==> Input File <==

--------------------------------------------------------------------------
molecule mol {
0 1
C 0.00000000 0.00000000 0.00000000
C -1.33160900 -0.52821100 0.39484800
C -1.43071100 -1.45269700 1.36587800
C -2.62792500 -1.93591800 1.73239500
C -3.74244100 -1.49412800 1.13010500
C -3.65384200 -0.56756700 0.16376000
C -2.45408900 -0.08753000 -0.19926200
H -2.39924400 0.68070000 -0.98910300
H -4.56915100 -0.19773500 -0.33032400
H -4.72851800 -1.88886800 1.43070300
H -2.69633900 -2.69630400 2.52975600
H -0.52149000 -1.82349700 1.86898600
C 0.80291000 0.82866100 0.99372200
C 2.05469100 -0.01352700 1.29254400
C 2.33965600 -0.73613400 -0.03532100
C 0.96570300 -0.98706800 -0.64018800
H 0.68568600 -2.02295000 -0.82494200
C 0.34304200 0.10457800 -1.46989700
H -0.39656500 -0.20546400 -2.20363900
H 0.96769800 0.93522300 -1.78708200
H 2.89906800 -1.68689100 0.13106700
H 2.94532000 -0.09317900 -0.71653600
H 1.81957400 -0.76486100 2.08426400
H 2.91658800 0.60476700 1.63908400
H 0.22390900 1.05449200 1.91967800
H 1.08828700 1.79961000 0.52491500
}

set scf_type df
set basis cc-pVDZ
set reference rhf

mol.update_geometry()
mol.symmetrize(1e-3)

e, wfn = optimize('mp2', return_wfn=True)
oeprop(wfn, "MULLIKEN_CHARGES")
mol.print_out()
print_variables()
--------------------------------------------------------------------------

Scratch directory: /local_scratch/pbs.4067451.pbs02/
gradient() will perform analytic gradient computation.

*** tstart() called on skystd35.palmetto.clemson.edu
*** at Tue Nov 23 22:10:20 2021

   => Loading Basis Set <=

    Name: CC-PVDZ
    Role: ORBITAL
    Keyword: BASIS
    atoms 1-7, 13-16, 18  entry C          line   138 file /home/maxbuskirk/.conda/envs/psifour/share/psi4/basis/cc-pvdz.gbs 
    atoms 8-12, 17, 19-26 entry H          line    22 file /home/maxbuskirk/.conda/envs/psifour/share/psi4/basis/cc-pvdz.gbs 


         ---------------------------------------------------------
                                   SCF
               by Justin Turney, Rob Parrish, Andy Simmonett
                          and Daniel G. A. Smith
                              RHF Reference
                        1 Threads,    500 MiB Core
         ---------------------------------------------------------

  ==> Geometry <==

    Molecular point group: c1
    Full point group: C1

    Geometry (in Angstrom), charge = 0, multiplicity = 1:

       Center              X                  Y                   Z               Mass       
    ------------   -----------------  -----------------  -----------------  -----------------
         C            0.674180460717     0.561564973389    -0.392519782418    12.000000000000
         C           -0.657428539283     0.033353973389     0.002328217582    12.000000000000
         C           -0.756530539283    -0.891132026611     0.973358217582    12.000000000000
         C           -1.953744539283    -1.374353026611     1.339875217582    12.000000000000
         C           -3.068260539283    -0.932563026611     0.737585217582    12.000000000000
         C           -2.979661539283    -0.006002026611    -0.228759782418    12.000000000000
         C           -1.779908539283     0.474034973389    -0.591781782418    12.000000000000
         H           -1.725063539283     1.242264973389    -1.381622782418     1.007825032230
         H           -3.894970539283     0.363829973389    -0.722843782418     1.007825032230
         H           -4.054337539283    -1.327303026611     1.038183217582     1.007825032230
         H           -2.022158539283    -2.134739026611     2.137236217582     1.007825032230
         H            0.152690460717    -1.261932026611     1.476466217582     1.007825032230
         C            1.477090460717     1.390225973389     0.601202217582    12.000000000000
         C            2.728871460717     0.548037973389     0.900024217582    12.000000000000
         C            3.013836460717    -0.174569026611    -0.427840782418    12.000000000000
         C            1.639883460717    -0.425503026611    -1.032707782418    12.000000000000
         H            1.359866460717    -1.461385026611    -1.217461782418     1.007825032230
         C            1.017222460717     0.666142973389    -1.862416782418    12.000000000000
         H            0.277615460717     0.356100973389    -2.596158782418     1.007825032230
         H            1.641878460717     1.496787973389    -2.179601782418     1.007825032230
         H            3.573248460717    -1.125326026611    -0.261452782418     1.007825032230
         H            3.619500460717     0.468385973389    -1.109055782418     1.007825032230
         H            2.493754460717    -0.203296026611     1.691744217582     1.007825032230
         H            3.590768460717     1.166331973389     1.246564217582     1.007825032230
         H            0.898089460717     1.616056973389     1.527158217582     1.007825032230
         H            1.762467460717     2.361174973389     0.132395217582     1.007825032230

  Running in c1 symmetry.

  Rotational constants: A =      0.07571  B =      0.02141  C =      0.01936 [cm^-1]
  Rotational constants: A =   2269.60782  B =    641.84797  C =    580.28171 [MHz]
  Nuclear repulsion =  680.105901532754501

  Charge       = 0
  Multiplicity = 1
  Electrons    = 86
  Nalpha       = 43
  Nbeta        = 43

  ==> Algorithm <==

  SCF Algorithm Type is DF.
  DIIS enabled.
  MOM disabled.
  Fractional occupation disabled.
  Guess Type is SAD.
  Energy threshold   = 1.00e-10
  Density threshold  = 1.00e-10
  Integral threshold = 1.00e-12

  ==> Primary Basis <==

  Basis Set: CC-PVDZ
    Blend: CC-PVDZ
    Number of shells: 114
    Number of basis functions: 238
    Number of Cartesian functions: 250
    Spherical Harmonics?: true
    Max angular momentum: 2

   => Loading Basis Set <=

    Name: (CC-PVDZ AUX)
    Role: JKFIT
    Keyword: DF_BASIS_SCF
    atoms 1-7, 13-16, 18  entry C          line   121 file /home/maxbuskirk/.conda/envs/psifour/share/psi4/basis/cc-pvdz-jkfit.gbs 
    atoms 8-12, 17, 19-26 entry H          line    51 file /home/maxbuskirk/.conda/envs/psifour/share/psi4/basis/cc-pvdz-jkfit.gbs 

  ==> Integral Setup <==

  ==> DiskDFJK: Density-Fitted J/K Matrices <==

    J tasked:                  Yes
    K tasked:                  Yes
    wK tasked:                  No
    OpenMP threads:              1
    Integrals threads:           1
    Memory [MiB]:              375
    Algorithm:                Core
    Integral Cache:           NONE
    Schwarz Cutoff:          1E-12
    Fitting Condition:       1E-10

   => Auxiliary Basis Set <=

  Basis Set: (CC-PVDZ AUX)
    Blend: CC-PVDZ-JKFIT
    Number of shells: 414
    Number of basis functions: 1162
    Number of Cartesian functions: 1322
    Spherical Harmonics?: true
    Max angular momentum: 3

  Minimum eigenvalue in the overlap matrix is 2.2188113727E-04.
  Reciprocal condition number of the overlap matrix is 3.1789031591E-05.
    Using symmetric orthogonalization.

  ==> Pre-Iterations <==

  SCF Guess: Superposition of Atomic Densities via on-the-fly atomic UHF (no occupation information).

   -------------------------
    Irrep   Nso     Nmo    
   -------------------------
     A        238     238 
   -------------------------
    Total     238     238
   -------------------------

  ==> Iterations <==

                           Total Energy        Delta E     RMS |[F,P]|

   @DF-RHF iter SAD:  -462.99075645377417   -4.62991e+02   0.00000e+00 
   @DF-RHF iter   1:  -462.28571460042843    7.05042e-01   2.59677e-03 DIIS
   @DF-RHF iter   2:  -462.50715743008948   -2.21443e-01   1.21011e-03 DIIS
   @DF-RHF iter   3:  -462.55080897380162   -4.36515e-02   2.68881e-04 DIIS
   @DF-RHF iter   4:  -462.55404039063734   -3.23142e-03   8.51334e-05 DIIS
   @DF-RHF iter   5:  -462.55427584719143   -2.35457e-04   2.14207e-05 DIIS
   @DF-RHF iter   6:  -462.55429352274234   -1.76756e-05   5.16394e-06 DIIS
   @DF-RHF iter   7:  -462.55429469835974   -1.17562e-06   1.76417e-06 DIIS
   @DF-RHF iter   8:  -462.55429482955071   -1.31191e-07   3.96162e-07 DIIS
   @DF-RHF iter   9:  -462.55429484250703   -1.29563e-08   1.51001e-07 DIIS
   @DF-RHF iter  10:  -462.55429484450957   -2.00254e-09   6.94856e-08 DIIS
   @DF-RHF iter  11:  -462.55429484510847   -5.98902e-10   3.09629e-08 DIIS
   @DF-RHF iter  12:  -462.55429484524211   -1.33639e-10   1.35228e-08 DIIS
   @DF-RHF iter  13:  -462.55429484526422   -2.21121e-11   4.91965e-09 DIIS
   @DF-RHF iter  14:  -462.55429484526815   -3.92220e-12   1.46669e-09 DIIS
   @DF-RHF iter  15:  -462.55429484526815    0.00000e+00   4.28707e-10 DIIS
   @DF-RHF iter  16:  -462.55429484526911   -9.66338e-13   1.52644e-10 DIIS
   @DF-RHF iter  17:  -462.55429484526803    1.08002e-12   6.46951e-11 DIIS
  Energy and wave function converged.


  ==> Post-Iterations <==

    Orbital Energies [Eh]
    ---------------------

    Doubly Occupied:                                                      

       1A    -11.232531     2A    -11.230530     3A    -11.229445  
       4A    -11.227926     5A    -11.226830     6A    -11.224786  
       7A    -11.222957     8A    -11.222578     9A    -11.221950  
      10A    -11.219319    11A    -11.218457    12A    -11.217096  
      13A     -1.197139    14A     -1.164011    15A     -1.044019  
      16A     -1.026293    17A     -1.019662    18A     -0.953014  
      19A     -0.850294    20A     -0.830137    21A     -0.813004  
      22A     -0.770077    23A     -0.742910    24A     -0.703264  
      25A     -0.652220    26A     -0.643107    27A     -0.625682  
      28A     -0.603476    29A     -0.581979    30A     -0.575436  
      31A     -0.564815    32A     -0.563555    33A     -0.526502  
      34A     -0.511023    35A     -0.484221    36A     -0.475472  
      37A     -0.470286    38A     -0.465620    39A     -0.461432  
      40A     -0.409676    41A     -0.386850    42A     -0.341664  
      43A     -0.324829  

    Virtual:                                                              

      44A      0.147325    45A      0.153055    46A      0.176853  
      47A      0.191046    48A      0.199665    49A      0.210251  
      50A      0.229953    51A      0.233547    52A      0.241469  
      53A      0.253847    54A      0.258236    55A      0.265931  
      56A      0.268560    57A      0.285338    58A      0.302859  
      59A      0.308890    60A      0.339325    61A      0.354775  
      62A      0.371567    63A      0.385379    64A      0.401824  
      65A      0.421347    66A      0.437817    67A      0.465771  
      68A      0.484469    69A      0.493204    70A      0.501220  
      71A      0.513862    72A      0.531860    73A      0.569483  
      74A      0.603366    75A      0.629064    76A      0.640777  
      77A      0.657953    78A      0.664685    79A      0.678470  
      80A      0.691550    81A      0.705235    82A      0.712613  
      83A      0.721193    84A      0.727916    85A      0.732995  
      86A      0.743144    87A      0.749142    88A      0.755638  
      89A      0.765338    90A      0.779283    91A      0.796222  
      92A      0.813355    93A      0.823899    94A      0.832813  
      95A      0.840774    96A      0.857338    97A      0.866296  
      98A      0.868756    99A      0.872162   100A      0.883336  
     101A      0.890406   102A      0.893578   103A      0.897594  
     104A      0.902737   105A      0.908890   106A      0.910830  
     107A      0.919768   108A      0.925713   109A      0.933331  
     110A      0.938861   111A      0.957018   112A      0.964831  
     113A      0.980634   114A      0.987053   115A      1.014170  
     116A      1.041484   117A      1.066365   118A      1.148677  
     119A      1.154868   120A      1.162535   121A      1.175525  
     122A      1.179350   123A      1.184755   124A      1.219753  
     125A      1.263115   126A      1.271172   127A      1.271817  
     128A      1.310515   129A      1.315873   130A      1.328242  
     131A      1.332896   132A      1.350442   133A      1.355143  
     134A      1.381050   135A      1.412894   136A      1.430441  
     137A      1.436549   138A      1.462563   139A      1.472312  
     140A      1.480041   141A      1.503007   142A      1.541344  
     143A      1.567613   144A      1.604562   145A      1.625010  
     146A      1.665133   147A      1.691385   148A      1.706851  
     149A      1.737898   150A      1.755210   151A      1.776675  
     152A      1.788379   153A      1.799025   154A      1.806247  
     155A      1.822069   156A      1.838808   157A      1.846359  
     158A      1.865665   159A      1.875372   160A      1.882384  
     161A      1.896735   162A      1.906718   163A      1.912211  
     164A      1.920849   165A      1.930131   166A      1.938771  
     167A      1.952375   168A      1.956538   169A      1.962061  
     170A      1.969813   171A      1.982068   172A      1.986360  
     173A      1.993379   174A      2.001993   175A      2.005678  
     176A      2.016906   177A      2.030034   178A      2.049449  
     179A      2.062141   180A      2.064936   181A      2.081353  
     182A      2.102915   183A      2.118674   184A      2.138527  
     185A      2.148605   186A      2.170650   187A      2.184292  
     188A      2.195023   189A      2.216221   190A      2.222917  
     191A      2.235325   192A      2.245112   193A      2.257419  
     194A      2.276729   195A      2.280826   196A      2.299039  
     197A      2.305430   198A      2.312314   199A      2.321220  
     200A      2.324191   201A      2.331130   202A      2.367221  
     203A      2.391045   204A      2.411758   205A      2.449366  
     206A      2.461227   207A      2.467268   208A      2.476929  
     209A      2.491962   210A      2.520535   211A      2.585134  
     212A      2.588376   213A      2.616495   214A      2.631978  
     215A      2.655428   216A      2.703463   217A      2.717010  
     218A      2.756779   219A      2.762029   220A      2.776771  
     221A      2.808269   222A      2.818229   223A      2.824220  
     224A      2.848867   225A      2.873744   226A      2.910998  
     227A      2.919834   228A      2.986768   229A      3.041706  
     230A      3.062269   231A      3.080647   232A      3.088255  
     233A      3.139838   234A      3.188173   235A      3.272789  
     236A      3.297369   237A      3.388258   238A      4.120904  

    Final Occupation by Irrep:
              A 
    DOCC [    43 ]

  @DF-RHF Final Energy:  -462.55429484526803

   => Energetics <=

    Nuclear Repulsion Energy =            680.1059015327545012
    One-Electron Energy =               -1974.3682410063001953
    Two-Electron Energy =                 831.7080446282775483
    Total Energy =                       -462.5542948452680321

Computation Completed


Properties will be evaluated at   0.000000,   0.000000,   0.000000 [a0]

Properties computed using the SCF density matrix

  Nuclear Dipole Moment: [e a0]
     X:     7.1935      Y:     1.4596      Z:    -0.2048

  Electronic Dipole Moment: [e a0]
     X:    -7.1085      Y:    -1.4804      Z:     0.2209

  Dipole Moment: [e a0]
     X:     0.0850      Y:    -0.0209      Z:     0.0161     Total:     0.0890

  Dipole Moment: [D]
     X:     0.2160      Y:    -0.0530      Z:     0.0410     Total:     0.2262


*** tstop() called on skystd35.palmetto.clemson.edu at Tue Nov 23 22:10:36 2021
Module time:
	user time   =      15.39 seconds =       0.26 minutes
	system time =       0.43 seconds =       0.01 minutes
	total time  =         16 seconds =       0.27 minutes
Total time:
	user time   =      15.39 seconds =       0.26 minutes
	system time =       0.43 seconds =       0.01 minutes
	total time  =         16 seconds =       0.27 minutes

*** tstart() called on skystd35.palmetto.clemson.edu
*** at Tue Nov 23 22:10:36 2021


  //>>>>>>>>>>>>>>>>>>>>>>>>>>>>>>>>>>>//
  //               DFMP2               //
  //<<<<<<<<<<<<<<<<<<<<<<<<<<<<<<<<<<<//

   => Loading Basis Set <=

    Name: (CC-PVDZ AUX)
    Role: RIFIT
    Keyword: DF_BASIS_MP2
    atoms 1-7, 13-16, 18  entry C          line   159 file /home/maxbuskirk/.conda/envs/psifour/share/psi4/basis/cc-pvdz-ri.gbs 
    atoms 8-12, 17, 19-26 entry H          line    19 file /home/maxbuskirk/.conda/envs/psifour/share/psi4/basis/cc-pvdz-ri.gbs 

	 --------------------------------------------------------
	                          DF-MP2                         
	      2nd-Order Density-Fitted Moller-Plesset Theory     
	              RMP2 Wavefunction,   1 Threads             
	                                                         
	        Rob Parrish, Justin Turney, Andy Simmonett,      
	           Ed Hohenstein, and C. David Sherrill          
	 --------------------------------------------------------

   => Auxiliary Basis Set <=

  Basis Set: (CC-PVDZ AUX)
    Blend: CC-PVDZ-RI
    Number of shells: 300
    Number of basis functions: 868
    Number of Cartesian functions: 1002
    Spherical Harmonics?: true
    Max angular momentum: 3

	 --------------------------------------------------------
	                 NBF =   238, NAUX =   868
	 --------------------------------------------------------
	   CLASS    FOCC     OCC    AOCC    AVIR     VIR    FVIR
	   PAIRS       0      43      43     195     195       0
	 --------------------------------------------------------


         ------------------------------------------------------------
                                     CPHF                           
                                  Rob Parrish                       
         ------------------------------------------------------------

  ==> Geometry <==

    Molecular point group: c1
    Full point group: C1

    Geometry (in Angstrom), charge = 0, multiplicity = 1:

       Center              X                  Y                   Z               Mass       
    ------------   -----------------  -----------------  -----------------  -----------------
         C            0.674180460717     0.561564973389    -0.392519782418    12.000000000000
         C           -0.657428539283     0.033353973389     0.002328217582    12.000000000000
         C           -0.756530539283    -0.891132026611     0.973358217582    12.000000000000
         C           -1.953744539283    -1.374353026611     1.339875217582    12.000000000000
         C           -3.068260539283    -0.932563026611     0.737585217582    12.000000000000
         C           -2.979661539283    -0.006002026611    -0.228759782418    12.000000000000
         C           -1.779908539283     0.474034973389    -0.591781782418    12.000000000000
         H           -1.725063539283     1.242264973389    -1.381622782418     1.007825032230
         H           -3.894970539283     0.363829973389    -0.722843782418     1.007825032230
         H           -4.054337539283    -1.327303026611     1.038183217582     1.007825032230
         H           -2.022158539283    -2.134739026611     2.137236217582     1.007825032230
         H            0.152690460717    -1.261932026611     1.476466217582     1.007825032230
         C            1.477090460717     1.390225973389     0.601202217582    12.000000000000
         C            2.728871460717     0.548037973389     0.900024217582    12.000000000000
         C            3.013836460717    -0.174569026611    -0.427840782418    12.000000000000
         C            1.639883460717    -0.425503026611    -1.032707782418    12.000000000000
         H            1.359866460717    -1.461385026611    -1.217461782418     1.007825032230
         C            1.017222460717     0.666142973389    -1.862416782418    12.000000000000
         H            0.277615460717     0.356100973389    -2.596158782418     1.007825032230
         H            1.641878460717     1.496787973389    -2.179601782418     1.007825032230
         H            3.573248460717    -1.125326026611    -0.261452782418     1.007825032230
         H            3.619500460717     0.468385973389    -1.109055782418     1.007825032230
         H            2.493754460717    -0.203296026611     1.691744217582     1.007825032230
         H            3.590768460717     1.166331973389     1.246564217582     1.007825032230
         H            0.898089460717     1.616056973389     1.527158217582     1.007825032230
         H            1.762467460717     2.361174973389     0.132395217582     1.007825032230

  Nuclear repulsion =  680.105901532754501
  Reference energy  = -462.554294845268032

  ==> Basis Set <==

  Basis Set: CC-PVDZ
    Blend: CC-PVDZ
    Number of shells: 114
    Number of basis functions: 238
    Number of Cartesian functions: 250
    Spherical Harmonics?: true
    Max angular momentum: 2

  ==> CGRSolver (by Rob Parrish) <==

   Number of roots    =         1
   Preconditioning    =    JACOBI
   Convergence cutoff =     1E-06
   Maximum iterations =       100

  ==> CPHFRHamiltonian (by Rob Parrish) <== 

  ==> DiskDFJK: Density-Fitted J/K Matrices <==

    J tasked:                  Yes
    K tasked:                  Yes
    wK tasked:                  No
    OpenMP threads:              1
    Integrals threads:           1
    Memory [MiB]:              375
    Algorithm:                Core
    Integral Cache:           NONE
    Schwarz Cutoff:          1E-12
    Fitting Condition:       1E-10

   => Auxiliary Basis Set <=

  Basis Set: (CC-PVDZ AUX)
    Blend: CC-PVDZ-JKFIT
    Number of shells: 414
    Number of basis functions: 1162
    Number of Cartesian functions: 1322
    Spherical Harmonics?: true
    Max angular momentum: 3

  ==> CPHF Iterations <==

  => Iterations <=

             Iter  Converged  Remaining    Residual
  CGR           1          0          1   6.815E-02
  CGR           2          0          1   1.381E-02
  CGR           3          0          1   6.038E-03
  CGR           4          0          1   2.418E-03
  CGR           5          0          1   1.176E-03
  CGR           6          0          1   4.642E-04
  CGR           7          0          1   1.499E-04
  CGR           8          0          1   3.507E-05
  CGR           9          0          1   1.278E-05
  CGR          10          0          1   3.918E-06
  CGR          11          0          1   1.421E-06
  CGR          12          1          0   5.012E-07

    CGRSolver converged.

  ==> DFCorrGrad: Density-Fitted Correlated Gradients <==

    OpenMP threads:              1
    Integrals threads:           1
    Memory [GiB]:            0.366
    Schwarz Cutoff:          0E+00
    Fitting Condition:       1E-10

   => Auxiliary Basis Set <=

  Basis Set: (CC-PVDZ AUX)
    Blend: CC-PVDZ-JKFIT
    Number of shells: 414
    Number of basis functions: 1162
    Number of Cartesian functions: 1322
    Spherical Harmonics?: true
    Max angular momentum: 3

	-----------------------------------------------------------
	 ==================> DF-MP2 Energies <==================== 
	-----------------------------------------------------------
	 Reference Energy          =    -462.5542948452680321 [Eh]
	 Singles Energy            =      -0.0000000000000000 [Eh]
	 Same-Spin Energy          =      -0.4284725585883728 [Eh]
	 Opposite-Spin Energy      =      -1.2131601472748286 [Eh]
	 Correlation Energy        =      -1.6416327058632014 [Eh]
	 Total Energy              =    -464.1959275511312057 [Eh]
	-----------------------------------------------------------
	 ================> DF-SCS-MP2 Energies <================== 
	-----------------------------------------------------------
	 SCS Same-Spin Scale       =       0.3333333333333333 [-]
	 SCS Opposite-Spin Scale   =       1.2000000000000000 [-]
	 SCS Same-Spin Energy      =      -0.1428241861961242 [Eh]
	 SCS Opposite-Spin Energy  =      -1.4557921767297943 [Eh]
	 SCS Correlation Energy    =      -1.5986163629259187 [Eh]
	 SCS Total Energy          =    -464.1529112081939275 [Eh]
	-----------------------------------------------------------


  -Total Gradient:
     Atom            X                  Y                   Z
    ------   -----------------  -----------------  -----------------
       1        0.006056344319     0.013325729297     0.002754681463
       2       -0.055839468911    -0.029527289234     0.020413957297
       3       -0.059409225296     0.026836863980    -0.037395075941
       4        0.003290382675     0.052435906559    -0.056277450574
       5        0.071574282320     0.027961289452    -0.020927423900
       6        0.064410459104    -0.025307163343     0.034311031202
       7       -0.000310903405    -0.051671730267     0.053511865095
       8       -0.001929514224     0.003695053803    -0.003721740818
       9       -0.004901682231     0.001864938787    -0.002422422370
      10       -0.005330733216    -0.001940227276     0.001774948668
      11       -0.000672882811    -0.003902167086     0.004273735085
      12        0.002852865142    -0.001902969892     0.003475232254
      13       -0.000468903688    -0.013204673057    -0.005610045400
      14       -0.007377344393    -0.002682468322    -0.005341914393
      15       -0.012622330387     0.004092248752     0.003188639170
      16       -0.012236150589     0.001503839453    -0.001977803822
      17        0.006030243811     0.001911749735     0.001166905412
      18       -0.000896914906    -0.001660069185    -0.001352843665
      19        0.005527401557     0.000390529224     0.001215286567
      20       -0.005120542642    -0.004241498037     0.001091600825
      21        0.003420673409    -0.007892671016     0.003381509913
      22        0.001290741343     0.004149280419    -0.005617409352
      23       -0.001761706002    -0.005448035826     0.005646473647
      24        0.006147818065     0.005553334754     0.000256767657
      25       -0.002722885734     0.001129046097     0.008758518230
      26        0.000999976697     0.004531152227    -0.004577022248


*** tstop() called on skystd35.palmetto.clemson.edu at Tue Nov 23 22:11:33 2021
Module time:
	user time   =      55.87 seconds =       0.93 minutes
	system time =       1.72 seconds =       0.03 minutes
	total time  =         57 seconds =       0.95 minutes
Total time:
	user time   =      71.26 seconds =       1.19 minutes
	system time =       2.15 seconds =       0.04 minutes
	total time  =         73 seconds =       1.22 minutes

			-----------------------------------------
			 OPTKING 2.0: for geometry optimizations 
			  - R.A. King,  Bethel University        
			-----------------------------------------

	Internal coordinates to be generated automatically.
	Detected frag 1 with atoms:  1 2 3 4 5 6 7 8 9 10 11 12 13 14 15 16 17 18 19 20
	 21 22 23 24 25 26
	---Fragment 1 Bond Connectivity---
	 1 : 2 13 16 18
	 2 : 1 3 7
	 3 : 2 4 12
	 4 : 3 5 11
	 5 : 4 6 10
	 6 : 5 7 9
	 7 : 2 6 8
	 8 : 7
	 9 : 6
	 10 : 5
	 11 : 4
	 12 : 3
	 13 : 1 14 25 26
	 14 : 13 15 23 24
	 15 : 14 16 21 22
	 16 : 1 15 17 18
	 17 : 16
	 18 : 1 16 19 20
	 19 : 18
	 20 : 18
	 21 : 15
	 22 : 15
	 23 : 14
	 24 : 14
	 25 : 13
	 26 : 13

	---Fragment 1 Geometry and Gradient---
	 C           1.2740164299        1.0612040014       -0.7417548876
	 C          -1.2423598863        0.0630298749        0.0043996936
	 C          -1.4296355248       -1.6839954719        1.8393804532
	 C          -3.6920420984       -2.5971508200        2.5319972035
	 C          -5.7981721008       -1.7622887150        1.3938340554
	 C          -5.6307442558       -0.0113421865       -0.4322933373
	 C          -3.3635396676        0.8957962736       -1.1183054948
	 H          -3.2598976383        2.3475405750       -2.6108886675
	 H          -7.3604275860        0.6875390059       -1.3659767803
	 H          -7.6615875694       -2.5082392058        1.9618819493
	 H          -3.8213258215       -4.0340721096        4.0387911166
	 H           0.2885431527       -2.3847059192        2.7901167847
	 C           2.7912964333        2.6271463422        1.1361075372
	 C           5.1568196923        1.0356416761        1.7007992775
	 C           5.6953254977       -0.3298876503       -0.8085019041
	 C           3.0989306184       -0.8040841858       -1.9515348764
	 H           2.5697751780       -2.7616174641       -2.3006693370
	 C           1.9222718594        1.2588277801       -3.5194576502
	 H           0.5246171889        0.6729333127       -4.9060290770
	 H           3.1027006220        2.8285193376       -4.1188504313
	 H           6.7524609690       -2.1265579921       -0.4940741535
	 H           6.8398645817        0.8851212107       -2.0958116866
	 H           4.7125129549       -0.3841738127        3.1969332456
	 H           6.7855689707        2.2040480011        2.3556649690
	 H           1.6971431169        3.0539050828        2.8859107815
	 H           3.3305808058        4.4619740340        0.2501907016
	             0.0060563443        0.0133257293        0.0027546815
	            -0.0558394689       -0.0295272892        0.0204139573
	            -0.0594092253        0.0268368640       -0.0373950759
	             0.0032903827        0.0524359066       -0.0562774506
	             0.0715742823        0.0279612895       -0.0209274239
	             0.0644104591       -0.0253071633        0.0343110312
	            -0.0003109034       -0.0516717303        0.0535118651
	            -0.0019295142        0.0036950538       -0.0037217408
	            -0.0049016822        0.0018649388       -0.0024224224
	            -0.0053307332       -0.0019402273        0.0017749487
	            -0.0006728828       -0.0039021671        0.0042737351
	             0.0028528651       -0.0019029699        0.0034752323
	            -0.0004689037       -0.0132046731       -0.0056100454
	            -0.0073773444       -0.0026824683       -0.0053419144
	            -0.0126223304        0.0040922488        0.0031886392
	            -0.0122361506        0.0015038395       -0.0019778038
	             0.0060302438        0.0019117497        0.0011669054
	            -0.0008969149       -0.0016600692       -0.0013528437
	             0.0055274016        0.0003905292        0.0012152866
	            -0.0051205426       -0.0042414980        0.0010916008
	             0.0034206734       -0.0078926710        0.0033815099
	             0.0012907413        0.0041492804       -0.0056174094
	            -0.0017617060       -0.0054480358        0.0056464736
	             0.0061478181        0.0055533348        0.0002567677
	            -0.0027228857        0.0011290461        0.0087585182
	             0.0009999767        0.0045311522       -0.0045770222

	Previous optimization step data not found.  Starting new optimization.

	---Fragment 1 Intrafragment Coordinates---
	 - Coordinate -           - BOHR/RAD -       - ANG/DEG -
	 R(1,2)           =         2.808068	       1.485966
	 R(1,13)          =         2.877617	       1.522769
	 R(1,16)          =         2.876314	       1.522080
	 R(1,18)          =         2.859182	       1.513014
	 R(2,3)           =         2.540536	       1.344394
	 R(2,7)           =         2.540348	       1.344295
	 R(3,4)           =         2.536149	       1.342072
	 R(3,12)          =         2.084954	       1.103310
	 R(4,5)           =         2.535388	       1.341670
	 R(4,11)          =         2.086117	       1.103926
	 R(5,6)           =         2.535466	       1.341711
	 R(5,10)          =         2.086010	       1.103869
	 R(6,7)           =         2.536480	       1.342247
	 R(6,9)           =         2.086146	       1.103941
	 R(7,8)           =         2.084732	       1.103193
	 R(13,14)         =         2.906452	       1.538028
	 R(13,25)         =         2.107393	       1.115184
	 R(13,26)         =         2.107669	       1.115330
	 R(14,15)         =         2.907104	       1.538373
	 R(14,23)         =         2.109906	       1.116514
	 R(14,24)         =         2.108755	       1.115905
	 R(15,16)         =         2.876222	       1.522031
	 R(15,21)         =         2.108180	       1.115601
	 R(15,22)         =         2.107933	       1.115470
	 R(16,17)         =         2.057629	       1.088850
	 R(16,18)         =         2.845789	       1.505927
	 R(18,19)         =         2.054091	       1.086978
	 R(18,20)         =         2.053440	       1.086634
	 B(1,2,3)         =         2.097193	     120.160299
	 B(1,2,7)         =         2.110985	     120.950530
	 B(1,13,14)       =         1.831692	     104.948207
	 B(1,13,25)       =         1.958741	     112.227590
	 B(1,13,26)       =         1.911711	     109.532970
	 B(1,16,15)       =         1.874094	     107.377697
	 B(1,16,17)       =         2.123695	     121.678750
	 B(1,16,18)       =         1.046394	      59.953961
	 B(1,18,16)       =         1.056847	      60.552892
	 B(1,18,19)       =         2.073511	     118.803448
	 B(1,18,20)       =         2.056409	     117.823531
	 B(2,1,13)        =         2.085797	     119.507362
	 B(2,1,16)        =         2.037336	     116.730761
	 B(2,1,18)        =         2.078179	     119.070878
	 B(2,3,4)         =         2.106688	     120.704322
	 B(2,3,12)        =         2.094072	     119.981496
	 B(2,7,6)         =         2.105497	     120.636109
	 B(2,7,8)         =         2.098079	     120.211078
	 B(3,2,7)         =         2.074972	     118.887127
	 B(3,4,5)         =         2.094250	     119.991675
	 B(3,4,11)        =         2.095029	     120.036307
	 B(4,3,12)        =         2.082423	     119.314054
	 B(4,5,6)         =         2.089625	     119.726715
	 B(4,5,10)        =         2.096771	     120.136139
	 B(5,4,11)        =         2.093906	     119.972004
	 B(5,6,7)         =         2.095313	     120.052591
	 B(5,6,9)         =         2.093185	     119.930676
	 B(6,5,10)        =         2.096783	     120.136833
	 B(6,7,8)         =         2.079587	     119.151569
	 B(7,6,9)         =         2.094682	     120.016412
	 B(13,1,16)       =         1.867994	     107.028148
	 B(13,1,18)       =         2.067829	     118.477850
	 B(13,14,15)      =         1.813439	     103.902375
	 B(13,14,23)      =         1.912254	     109.564068
	 B(13,14,24)      =         1.966615	     112.678735
	 B(14,13,25)      =         1.952103	     111.847282
	 B(14,13,26)      =         1.928485	     110.494038
	 B(14,15,16)      =         1.826838	     104.670098
	 B(14,15,21)      =         1.943853	     111.374556
	 B(14,15,22)      =         1.935810	     110.913764
	 B(15,14,23)      =         1.912387	     109.571731
	 B(15,14,24)      =         1.966263	     112.658582
	 B(15,16,17)      =         2.044771	     117.156776
	 B(15,16,18)      =         2.063138	     118.209116
	 B(16,1,18)       =         1.038351	      59.493147
	 B(16,15,21)      =         1.951339	     111.803495
	 B(16,15,22)      =         1.920347	     110.027783
	 B(16,18,19)      =         2.033633	     116.518588
	 B(16,18,20)      =         2.068337	     118.506957
	 B(17,16,18)      =         2.082677	     119.328625
	 B(19,18,20)      =         1.995602	     114.339595
	 B(21,15,22)      =         1.886035	     108.061852
	 B(23,14,24)      =         1.891560	     108.378423
	 B(25,13,26)      =         1.881325	     107.791982
	 D(1,2,3,4)       =         3.140015	     179.909589
	 D(1,2,3,12)      =        -0.003867	      -0.221554
	 D(1,2,7,6)       =        -3.139833	    -179.899175
	 D(1,2,7,8)       =        -0.005382	      -0.308370
	 D(1,13,14,15)    =         0.582496	      33.374548
	 D(1,13,14,23)    =        -1.459777	     -83.639076
	 D(1,13,14,24)    =         2.716087	     155.620349
	 D(1,16,15,14)    =         0.369820	      21.189108
	 D(1,16,15,21)    =         2.476381	     141.886172
	 D(1,16,15,22)    =        -1.710967	     -98.031167
	 D(1,16,18,19)    =        -1.914138	    -109.672055
	 D(1,16,18,20)    =         1.878980	     107.657628
	 D(1,18,16,15)    =        -1.652158	     -94.661664
	 D(1,18,16,17)    =         1.950772	     111.771010
	 D(2,1,13,14)     =         2.008008	     115.050369
	 D(2,1,13,25)     =        -0.115728	      -6.630742
	 D(2,1,13,26)     =        -2.204619	    -126.315365
	 D(2,1,16,15)     =        -2.398398	    -137.418108
	 D(2,1,16,17)     =         0.028224	       1.617120
	 D(2,1,16,18)     =         1.912091	     109.554741
	 D(2,1,18,16)     =        -1.843945	    -105.650253
	 D(2,1,18,19)     =         0.005139	       0.294417
	 D(2,1,18,20)     =         2.540852	     145.580092
	 D(2,3,4,5)       =        -0.002820	      -0.161589
	 D(2,3,4,11)      =         3.139507	     179.880511
	 D(2,7,6,5)       =         0.002611	       0.149602
	 D(2,7,6,9)       =         3.140602	     179.943236
	 D(3,2,1,13)      =        -1.152404	     -66.027913
	 D(3,2,1,16)      =         1.141569	      65.407068
	 D(3,2,1,18)      =         2.332995	     133.670791
	 D(3,2,7,6)       =        -0.007305	      -0.418518
	 D(3,2,7,8)       =         3.127146	     179.172287
	 D(3,4,5,6)       =        -0.001991	      -0.114053
	 D(3,4,5,10)      =        -3.140037	    -179.910849
	 D(4,3,2,7)       =         0.007413	       0.424721
	 D(4,5,6,7)       =         0.002094	       0.119979
	 D(4,5,6,9)       =        -3.135900	    -179.673834
	 D(5,4,3,12)      =         3.141046	     179.968688
	 D(5,6,7,8)       =        -3.131915	    -179.445494
	 D(6,5,4,11)      =         3.138868	     179.843874
	 D(7,2,1,13)      =         1.980009	     113.446166
	 D(7,2,1,16)      =        -2.009203	    -115.118853
	 D(7,2,1,18)      =        -0.817776	     -46.855130
	 D(7,2,3,12)      =        -3.136469	    -179.706422
	 D(7,6,5,10)      =         3.140140	     179.916773
	 D(8,7,6,9)       =         0.006076	       0.348141
	 D(9,6,5,10)      =         0.002146	       0.122960
	 D(10,5,4,11)     =         0.000822	       0.047079
	 D(11,4,3,12)     =         0.000188	       0.010787
	 D(13,1,16,15)    =        -0.007818	      -0.447959
	 D(13,1,16,17)    =         2.418804	     138.587269
	 D(13,1,16,18)    =        -1.980514	    -113.475109
	 D(13,1,18,16)    =         1.637910	      93.845334
	 D(13,1,18,19)    =        -2.796192	    -160.209996
	 D(13,1,18,20)    =        -0.260479	     -14.924321
	 D(13,14,15,16)   =        -0.585810	     -33.564419
	 D(13,14,15,21)   =        -2.697333	    -154.545773
	 D(13,14,15,22)   =         1.484529	      85.057233
	 D(14,13,1,16)    =        -0.357787	     -20.499691
	 D(14,13,1,18)    =        -1.475364	     -84.532106
	 D(14,15,16,17)   =        -2.094026	    -119.978865
	 D(14,15,16,18)   =         1.498907	      85.881054
	 D(15,14,13,25)   =         2.710564	     155.303895
	 D(15,14,13,26)   =        -1.476720	     -84.609838
	 D(15,16,1,18)    =         1.972696	     113.027150
	 D(15,16,18,19)   =         2.716889	     155.666282
	 D(15,16,18,20)   =         0.226822	      12.995964
	 D(16,1,13,25)    =        -2.481523	    -142.180802
	 D(16,1,13,26)    =         1.712771	      98.134576
	 D(16,1,18,19)    =         1.849083	     105.944670
	 D(16,1,18,20)    =        -1.898389	    -108.769655
	 D(16,15,14,23)   =         1.456370	      83.443861
	 D(16,15,14,24)   =        -2.719634	    -155.823559
	 D(17,16,1,18)    =        -1.883867	    -107.937621
	 D(17,16,15,21)   =         0.012535	       0.718199
	 D(17,16,15,22)   =         2.108373	     120.800860
	 D(17,16,18,19)   =         0.036634	       2.098955
	 D(17,16,18,20)   =        -2.453433	    -140.571363
	 D(18,1,13,25)    =         2.684086	     153.786782
	 D(18,1,13,26)    =         0.595195	      34.102160
	 D(18,16,15,21)   =        -2.677717	    -153.421882
	 D(18,16,15,22)   =        -0.581879	     -33.339221
	 D(21,15,14,23)   =        -0.655153	     -37.537493
	 D(21,15,14,24)   =         1.452028	      83.195087
	 D(22,15,14,23)   =        -2.756477	    -157.934488
	 D(22,15,14,24)   =        -0.649296	     -37.201907
	 D(23,14,13,25)   =         0.668291	      38.290272
	 D(23,14,13,26)   =         2.764192	     158.376539
	 D(24,14,13,25)   =        -1.439029	     -82.450304
	 D(24,14,13,26)   =         0.656871	      37.635963
	 R(3,14)          =         7.127203	       3.771553

	Current energy   :      -464.1959275511

	Generating empirical Hessian (Schlegel '84) for each fragment.
	Taking RFO optimization step.
	Going to follow RFO solution 1.
	Using RFO vector 1.
	Norm of target step-size    0.31706
	Projected energy change by RFO approximation:        -0.0502657656

	Back-transformation to cartesian coordinates...
	Could not converge backtransformation.
	Using first guess instead.

	--- Internal Coordinate Step in ANG or DEG, aJ/ANG or AJ/DEG ---
	 ---------------------------------------------------------------------------
	   Coordinate                Previous        Force       Change         New 
	   ----------                --------       ------       ------       ------
	    1 R(1,2)          =      1.485966     0.056863     0.013360     1.499326
	    2 R(1,13)         =      1.522769     0.034713     0.008596     1.531365
	    3 R(1,16)         =      1.522080     0.039835     0.008202     1.530282
	    4 R(1,18)         =      1.513014     0.012867     0.000909     1.513923
	    5 R(2,3)          =      1.344394     0.583886     0.061945     1.406339
	    6 R(2,7)          =      1.344295     0.593168     0.062003     1.406297
	    7 R(3,4)          =      1.342072     0.586262     0.060622     1.402695
	    8 R(3,12)         =      1.103310    -0.037694    -0.006142     1.097168
	    9 R(4,5)          =      1.341670     0.606788     0.062433     1.404103
	   10 R(4,11)         =      1.103926    -0.047920    -0.007879     1.096046
	   11 R(5,6)          =      1.341711     0.595877     0.061415     1.403125
	   12 R(5,10)         =      1.103869    -0.048930    -0.008051     1.095818
	   13 R(6,7)          =      1.342247     0.597134     0.061869     1.404116
	   14 R(6,9)          =      1.103941    -0.047563    -0.007884     1.096056
	   15 R(7,8)          =      1.103193    -0.042362    -0.006961     1.096232
	   16 R(13,14)        =      1.538028     0.010335     0.003664     1.541693
	   17 R(13,25)        =      1.115184    -0.073446    -0.012291     1.102894
	   18 R(13,26)        =      1.115330    -0.050456    -0.008455     1.106875
	   19 R(14,15)        =      1.538373     0.024392     0.004212     1.542585
	   20 R(14,23)        =      1.116514    -0.066248    -0.011241     1.105272
	   21 R(14,24)        =      1.115905    -0.065128    -0.010811     1.105094
	   22 R(15,16)        =      1.522031     0.040140     0.008645     1.530676
	   23 R(15,21)        =      1.115601    -0.073704    -0.012616     1.102985
	   24 R(15,22)        =      1.115470    -0.053741    -0.008853     1.106617
	   25 R(16,17)        =      1.088850     0.029392     0.004802     1.093652
	   26 R(16,18)        =      1.505927     0.019792     0.005124     1.511050
	   27 R(18,19)        =      1.086978     0.038662     0.006224     1.093202
	   28 R(18,20)        =      1.086634     0.053589     0.008633     1.095267
	   29 B(1,2,3)        =    120.160299    -0.000687    -0.860189   119.300110
	   30 B(1,2,7)        =    120.950530     0.000622     0.994614   121.945145
	   31 B(1,13,14)      =    104.948207    -0.000110    -0.143198   104.805009
	   32 B(1,13,25)      =    112.227590    -0.000164    -0.874274   111.353316
	   33 B(1,13,26)      =    109.532970     0.000222     0.928016   110.460986
	   34 B(1,16,15)      =    107.377697     0.000084     0.417213   107.794909
	   35 B(1,16,17)      =    121.678750    -0.000160    -1.072319   120.606432
	   36 B(1,16,18)      =     59.953961    -0.000064    -0.251114    59.702847
	   37 B(1,18,16)      =     60.552892     0.000088     0.226971    60.779863
	   38 B(1,18,19)      =    118.803448    -0.000143    -0.840103   117.963345
	   39 B(1,18,20)      =    117.823531     0.000011     0.192561   118.016092
	   40 B(2,1,13)       =    119.507362    -0.000259    -0.481001   119.026362
	   41 B(2,1,16)       =    116.730761     0.000268     1.348851   118.079612
	   42 B(2,1,18)       =    119.070878     0.000302     0.928317   119.999196
	   43 B(2,3,4)        =    120.704322    -0.000016     0.059252   120.763574
	   44 B(2,3,12)       =    119.981496    -0.000113    -0.476248   119.505248
	   45 B(2,7,6)        =    120.636109    -0.000013     0.098838   120.734947
	   46 B(2,7,8)        =    120.211078    -0.000166    -0.642948   119.568130
	   47 B(3,2,7)        =    118.887127     0.000064    -0.138354   118.748773
	   48 B(3,4,5)        =    119.991675     0.000025     0.082683   120.074358
	   49 B(3,4,11)       =    120.036307    -0.000037    -0.144321   119.891986
	   50 B(4,3,12)       =    119.314054     0.000129     0.416414   119.730467
	   51 B(4,5,6)        =    119.726715    -0.000041    -0.110318   119.616398
	   52 B(4,5,10)       =    120.136139     0.000019     0.029769   120.165908
	   53 B(5,4,11)       =    119.972004     0.000011     0.061546   120.033550
	   54 B(5,6,7)        =    120.052591    -0.000020     0.007185   120.059776
	   55 B(5,6,9)        =    119.930676     0.000025     0.034896   119.965572
	   56 B(6,5,10)       =    120.136833     0.000021     0.080682   120.217515
	   57 B(6,7,8)        =    119.151569     0.000179     0.544721   119.696289
	   58 B(7,6,9)        =    120.016412    -0.000006    -0.042058   119.974354
	   59 B(13,1,16)      =    107.028148    -0.000046    -0.411908   106.616240
	   60 B(13,1,18)      =    118.477850    -0.000076    -0.798494   117.679356
	   61 B(13,14,15)     =    103.902375     0.000235     0.433777   104.336153
	   62 B(13,14,23)     =    109.564068    -0.000057    -0.214883   109.349185
	   63 B(13,14,24)     =    112.678735    -0.000060     0.129644   112.808379
	   64 B(14,13,25)     =    111.847282     0.000164     0.626473   112.473755
	   65 B(14,13,26)     =    110.494038    -0.000037    -0.181886   110.312152
	   66 B(14,15,16)     =    104.670098    -0.000230    -0.572352   104.097745
	   67 B(14,15,21)     =    111.374556     0.000163     0.612585   111.987142
	   68 B(14,15,22)     =    110.913764    -0.000028    -0.310228   110.603536
	   69 B(15,14,23)     =    109.571731    -0.000048    -0.160715   109.411016
	   70 B(15,14,24)     =    112.658582    -0.000053     0.199354   112.857937
	   71 B(15,16,17)     =    117.156776     0.000103     0.855335   118.012112
	   72 B(15,16,18)     =    118.209116     0.000002    -0.125191   118.083925
	   73 B(16,1,18)      =     59.493147    -0.000024     0.024143    59.517290
	   74 B(16,15,21)     =    111.803495    -0.000022    -0.122930   111.680566
	   75 B(16,15,22)     =    110.027783     0.000246     0.990748   111.018532
	   76 B(16,18,19)     =    116.518588     0.000029     0.455671   116.974260
	   77 B(16,18,20)     =    118.506957    -0.000106    -0.541583   117.965374
	   78 B(17,16,18)     =    119.328625    -0.000066    -0.522209   118.806416
	   79 B(19,18,20)     =    114.339595     0.000095     0.365617   114.705212
	   80 B(21,15,22)     =    108.061852    -0.000123    -0.562343   107.499509
	   81 B(23,14,24)     =    108.378423    -0.000014    -0.379305   107.999119
	   82 B(25,13,26)     =    107.791982    -0.000070    -0.323343   107.468639
	   83 D(1,2,3,4)      =    179.909589    -0.000009    -0.323817   179.585772
	   84 D(1,2,3,12)     =     -0.221554    -0.000014    -0.500155    -0.721709
	   85 D(1,2,7,6)      =   -179.899175     0.000009     0.254906  -179.644269
	   86 D(1,2,7,8)      =     -0.308370     0.000011     0.373646     0.065277
	   87 D(1,13,14,15)   =     33.374548     0.000035     0.639409    34.013957
	   88 D(1,13,14,23)   =    -83.639076     0.000025     0.697127   -82.941949
	   89 D(1,13,14,24)   =    155.620349     0.000048     1.241980   156.862329
	   90 D(1,16,15,14)   =     21.189108    -0.000003    -0.149963    21.039145
	   91 D(1,16,15,21)   =    141.886172     0.000006     0.167439   142.053611
	   92 D(1,16,15,22)   =    -98.031167     0.000005     0.045657   -97.985510
	   93 D(1,16,18,19)   =   -109.672055     0.000035     1.119369  -108.552686
	   94 D(1,16,18,20)   =    107.657628     0.000021     0.545455   108.203082
	   95 D(1,18,16,15)   =    -94.661664    -0.000017    -0.468626   -95.130289
	   96 D(1,18,16,17)   =    111.771010    -0.000044    -1.182604   110.588406
	   97 D(2,1,13,14)    =    115.050369     0.000011     0.669953   115.720322
	   98 D(2,1,13,25)    =     -6.630742     0.000003     0.490020    -6.140722
	   99 D(2,1,13,26)    =   -126.315365     0.000013     0.841807  -125.473558
	  100 D(2,1,16,15)    =   -137.418108     0.000044     0.160551  -137.257557
	  101 D(2,1,16,17)    =      1.617120     0.000065     0.851748     2.468868
	  102 D(2,1,16,18)    =    109.554741     0.000054     0.538262   110.093003
	  103 D(2,1,18,16)    =   -105.650253    -0.000042    -1.258155  -106.908408
	  104 D(2,1,18,19)    =      0.294417    -0.000011    -0.256484     0.037933
	  105 D(2,1,18,20)    =    145.580092    -0.000019    -0.609411   144.970681
	  106 D(2,3,4,5)      =     -0.161589     0.000002     0.071562    -0.090027
	  107 D(2,3,4,11)     =    179.880511    -0.000003    -0.088604   179.791907
	  108 D(2,7,6,5)      =      0.149602     0.000003     0.106046     0.255648
	  109 D(2,7,6,9)      =    179.943236     0.000003     0.113886   180.057122
	  110 D(3,2,1,13)     =    -66.027913     0.000010    -0.077108   -66.105021
	  111 D(3,2,1,16)     =     65.407068    -0.000003     0.301363    65.708430
	  112 D(3,2,1,18)     =    133.670791     0.000037     1.189551   134.860342
	  113 D(3,2,7,6)      =     -0.418518    -0.000004    -0.121481    -0.540000
	  114 D(3,2,7,8)      =    179.172287    -0.000002    -0.002741   179.169546
	  115 D(3,4,5,6)      =     -0.114053    -0.000002    -0.088401    -0.202454
	  116 D(3,4,5,10)     =   -179.910849    -0.000004    -0.137677  -180.048526
	  117 D(4,3,2,7)      =      0.424721     0.000002     0.032629     0.457350
	  118 D(4,5,6,7)      =      0.119979     0.000000     0.000438     0.120417
	  119 D(4,5,6,9)      =   -179.673834     0.000000    -0.007241  -179.681075
	  120 D(5,4,3,12)     =    179.968688     0.000006     0.249454   180.218142
	  121 D(5,6,7,8)      =   -179.445494     0.000001    -0.008034  -179.453527
	  122 D(6,5,4,11)     =    179.843874     0.000002     0.071906   179.915780
	  123 D(7,2,1,13)     =    113.446166    -0.000002    -0.451714   112.994453
	  124 D(7,2,1,16)     =   -115.118853    -0.000015    -0.073243  -115.192096
	  125 D(7,2,1,18)     =    -46.855130     0.000025     0.814945   -46.040184
	  126 D(7,2,3,12)     =   -179.706422    -0.000003    -0.143709  -179.850131
	  127 D(7,6,5,10)     =    179.916773     0.000002     0.049635   179.966408
	  128 D(8,7,6,9)      =      0.348141     0.000001    -0.000194     0.347946
	  129 D(9,6,5,10)     =      0.122960     0.000002     0.041956     0.164916
	  130 D(10,5,4,11)    =      0.047079     0.000001     0.022630     0.069708
	  131 D(11,4,3,12)    =      0.010787     0.000001     0.089289     0.100076
	  132 D(13,1,16,15)   =     -0.447959     0.000005     0.338559    -0.109400
	  133 D(13,1,16,17)   =    138.587269     0.000026     1.029755   139.617025
	  134 D(13,1,16,18)   =   -113.475109     0.000015     0.716270  -112.758839
	  135 D(13,1,18,16)   =     93.845334    -0.000007    -0.064905    93.780429
	  136 D(13,1,18,19)   =   -160.209996     0.000024     0.936766  -159.273229
	  137 D(13,1,18,20)   =    -14.924321     0.000016     0.583839   -14.340482
	  138 D(13,14,15,16)  =    -33.564419    -0.000022    -0.246666   -33.811085
	  139 D(13,14,15,21)  =   -154.545773    -0.000004    -0.074636  -154.620410
	  140 D(13,14,15,22)  =     85.057233     0.000011     0.438963    85.496196
	  141 D(14,13,1,16)   =    -20.499691    -0.000011    -0.446163   -20.945854
	  142 D(14,13,1,18)   =    -84.532106     0.000001    -0.229574   -84.761680
	  143 D(14,15,16,17)  =   -119.978865     0.000005     0.083589  -119.895276
	  144 D(14,15,16,18)  =     85.881054    -0.000012    -0.263634    85.617420
	  145 D(15,14,13,25)  =    155.303895    -0.000006    -0.164614   155.139281
	  146 D(15,14,13,26)  =    -84.609838    -0.000007    -0.282702   -84.892540
	  147 D(15,16,1,18)   =    113.027150    -0.000010    -0.377711   112.649440
	  148 D(15,16,18,19)  =    155.666282     0.000019     0.650743   156.317025
	  149 D(15,16,18,20)  =     12.995964     0.000005     0.076829    13.072793
	  150 D(16,1,13,25)   =   -142.180802    -0.000020    -0.626095  -142.806898
	  151 D(16,1,13,26)   =     98.134576    -0.000010    -0.274309    97.860266
	  152 D(16,1,18,19)   =    105.944670     0.000030     1.001671   106.946342
	  153 D(16,1,18,20)   =   -108.769655     0.000023     0.648744  -108.120911
	  154 D(16,15,14,23)  =     83.443861    -0.000014    -0.341848    83.102013
	  155 D(16,15,14,24)  =   -155.823559    -0.000034    -0.803560  -156.627119
	  156 D(17,16,1,18)   =   -107.937621     0.000011     0.313486  -107.624136
	  157 D(17,16,15,21)  =      0.718199     0.000015     0.400991     1.119190
	  158 D(17,16,15,22)  =    120.800860     0.000014     0.279209   121.080069
	  159 D(17,16,18,19)  =      2.098955    -0.000009    -0.063236     2.035719
	  160 D(17,16,18,20)  =   -140.571363    -0.000023    -0.637150  -141.208512
	  161 D(18,1,13,25)   =    153.786782    -0.000007    -0.409506   153.377276
	  162 D(18,1,13,26)   =     34.102160     0.000003    -0.057719    34.044441
	  163 D(18,16,15,21)  =   -153.421882    -0.000002     0.053767  -153.368114
	  164 D(18,16,15,22)  =    -33.339221    -0.000003    -0.068014   -33.407235
	  165 D(21,15,14,23)  =    -37.537493     0.000004    -0.169818   -37.707312
	  166 D(21,15,14,24)  =     83.195087    -0.000015    -0.631531    82.563556
	  167 D(22,15,14,23)  =   -157.934488     0.000019     0.343781  -157.590706
	  168 D(22,15,14,24)  =    -37.201907    -0.000001    -0.117931   -37.319839
	  169 D(23,14,13,25)  =     38.290272    -0.000015    -0.106896    38.183376
	  170 D(23,14,13,26)  =    158.376539    -0.000016    -0.224984   158.151554
	  171 D(24,14,13,25)  =    -82.450304     0.000007     0.437957   -82.012347
	  172 D(24,14,13,26)  =     37.635963     0.000006     0.319869    37.955832
	  173 R(3,14)         =      3.771553     0.048293     0.024171     3.795725
	 ---------------------------------------------------------------------------
	Successfully symmetrized geometry.

  ==> Convergence Check <==

  Measures of convergence in internal coordinates in au.
  Criteria marked as inactive (o), active & met (*), and active & unmet ( ).
  --------------------------------------------------------------------------------------------- ~
   Step     Total Energy     Delta E     MAX Force     RMS Force      MAX Disp      RMS Disp    ~
  --------------------------------------------------------------------------------------------- ~
    Convergence Criteria    1.00e-06 *    3.00e-04 *             o    1.20e-03 *             o  ~
  --------------------------------------------------------------------------------------------- ~
      1    -464.19592755   -4.64e+02      7.37e-02      1.37e-02 o    1.18e-01      2.41e-02 o  ~
  ---------------------------------------------------------------------------------------------

	Writing optimization data to binary file.
	Structure for next step:
	Cartesian Geometry (in Angstrom)
	    C     0.7011840356   0.5584475318  -0.4148712808
	    C    -0.6496534244   0.0411323513  -0.0204090586
	    C    -0.7474840034  -0.9159521795   1.0053625063
	    C    -1.9962877108  -1.4144050426   1.4048456581
	    C    -3.1684300780  -0.9577304173   0.7811188475
	    C    -3.0823660254   0.0015862062  -0.2392072579
	    C    -1.8296950321   0.4982494215  -0.6337751793
	    H    -1.7700418193   1.2542388209  -1.4253844611
	    H    -3.9940876960   0.3659389801  -0.7263932550
	    H    -4.1447494394  -1.3467016075   1.0914727868
	    H    -2.0556808529  -2.1626175729   2.2035744709
	    H     0.1650923965  -1.2793867223   1.4941341662
	    C     1.4996564364   1.3934206988   0.5902861223
	    C     2.7525122138   0.5488897241   0.8967754033
	    C     3.0655404503  -0.1667492958  -0.4334290277
	    C     1.6891379864  -0.4204499003  -1.0532045131
	    H     1.3978611395  -1.4558673826  -1.2510508356
	    C     1.0667262962   0.6814571435  -1.8788417149
	    H     0.3203527035   0.3843109282  -2.6202735417
	    H     1.7041577850   1.5191937669  -2.1813118984
	    H     3.6210244709  -1.1065508493  -0.2759936819
	    H     3.6823255359   0.4788282367  -1.0871930011
	    H     2.5075843179  -0.2025726151   1.6693955634
	    H     3.5983914728   1.1560705185   1.2669809100
	    H     0.9057393498   1.6099448837   1.4940307180
	    H     1.7900894423   2.3634656756   0.1432582122
			--------------------------
			 OPTKING Finished Execution 
			--------------------------

    Structure for next step:
    Molecular point group: c1
    Full point group: C1

    Geometry (in Angstrom), charge = 0, multiplicity = 1:

    C            0.704987572972     0.559931314303    -0.413919094560
    C           -0.645849892358     0.042616131690    -0.019456870874
    C           -0.743680471692    -0.914468402789     1.006314698097
    C           -1.992484184035    -1.412921267879     1.405797851423
    C           -3.164626555774    -0.956246640844     0.782071038377
    C           -3.078562502879     0.003069986494    -0.238255070994
    C           -1.825891504676     0.499733203715    -0.632822993957
    H           -1.766238291655     1.255722606073    -1.424432278906
    H           -3.990284177099     0.367422761792    -0.725441070030
    H           -4.140945921099    -1.345217832560     1.092424978940
    H           -2.051877326345    -2.161133801162     2.204526667424
    H            0.168895931828    -1.277902947036     1.495086359894
    C            1.503459976946     1.394904484551     0.591238312464
    C            2.756315759288     0.550373506485     0.897727594700
    C            3.069343997030    -0.165265516181    -0.432476841543
    C            1.692941527634    -0.418966121709    -1.052252329427
    H            1.401664679582    -1.454383608019    -1.250098652683
    C            1.070529835044     0.682940926393    -1.877889534442
    H            0.324156239356     0.385794709997    -2.619321364121
    H            1.707961326366     1.520677553094    -2.180359719168
    H            3.624828019733    -1.105067073415    -0.275041495170
    H            3.686129085027     0.480312018833    -1.086240817493
    H            2.511387862416    -0.201088835633     1.670347757809
    H            3.602195021527     1.157554303313     1.267933102821
    H            0.909542887945     1.611428670270     1.494982911738
    H            1.793892984011     2.364949465148     0.144210400626


Scratch directory: /local_scratch/pbs.4067451.pbs02/
gradient() will perform analytic gradient computation.

*** tstart() called on skystd35.palmetto.clemson.edu
*** at Tue Nov 23 22:11:34 2021

   => Loading Basis Set <=

    Name: CC-PVDZ
    Role: ORBITAL
    Keyword: BASIS
    atoms 1-7, 13-16, 18  entry C          line   138 file /home/maxbuskirk/.conda/envs/psifour/share/psi4/basis/cc-pvdz.gbs 
    atoms 8-12, 17, 19-26 entry H          line    22 file /home/maxbuskirk/.conda/envs/psifour/share/psi4/basis/cc-pvdz.gbs 


         ---------------------------------------------------------
                                   SCF
               by Justin Turney, Rob Parrish, Andy Simmonett
                          and Daniel G. A. Smith
                              RHF Reference
                        1 Threads,    500 MiB Core
         ---------------------------------------------------------

  ==> Geometry <==

    Molecular point group: c1
    Full point group: C1

    Geometry (in Angstrom), charge = 0, multiplicity = 1:

       Center              X                  Y                   Z               Mass       
    ------------   -----------------  -----------------  -----------------  -----------------
         C            0.704987572972     0.559931314303    -0.413919094560    12.000000000000
         C           -0.645849892358     0.042616131690    -0.019456870874    12.000000000000
         C           -0.743680471692    -0.914468402789     1.006314698097    12.000000000000
         C           -1.992484184035    -1.412921267879     1.405797851423    12.000000000000
         C           -3.164626555774    -0.956246640844     0.782071038377    12.000000000000
         C           -3.078562502879     0.003069986494    -0.238255070994    12.000000000000
         C           -1.825891504676     0.499733203715    -0.632822993957    12.000000000000
         H           -1.766238291655     1.255722606073    -1.424432278906     1.007825032230
         H           -3.990284177099     0.367422761792    -0.725441070030     1.007825032230
         H           -4.140945921099    -1.345217832560     1.092424978940     1.007825032230
         H           -2.051877326345    -2.161133801162     2.204526667424     1.007825032230
         H            0.168895931828    -1.277902947036     1.495086359894     1.007825032230
         C            1.503459976946     1.394904484551     0.591238312464    12.000000000000
         C            2.756315759288     0.550373506485     0.897727594700    12.000000000000
         C            3.069343997030    -0.165265516181    -0.432476841543    12.000000000000
         C            1.692941527634    -0.418966121709    -1.052252329427    12.000000000000
         H            1.401664679582    -1.454383608019    -1.250098652683     1.007825032230
         C            1.070529835044     0.682940926393    -1.877889534442    12.000000000000
         H            0.324156239356     0.385794709997    -2.619321364121     1.007825032230
         H            1.707961326366     1.520677553094    -2.180359719168     1.007825032230
         H            3.624828019733    -1.105067073415    -0.275041495170     1.007825032230
         H            3.686129085027     0.480312018833    -1.086240817493     1.007825032230
         H            2.511387862416    -0.201088835633     1.670347757809     1.007825032230
         H            3.602195021527     1.157554303313     1.267933102821     1.007825032230
         H            0.909542887945     1.611428670270     1.494982911738     1.007825032230
         H            1.793892984011     2.364949465148     0.144210400626     1.007825032230

  Running in c1 symmetry.

  Rotational constants: A =      0.07328  B =      0.02052  C =      0.01848 [cm^-1]
  Rotational constants: A =   2196.76398  B =    615.15327  C =    554.02819 [MHz]
  Nuclear repulsion =  667.479064709141426

  Charge       = 0
  Multiplicity = 1
  Electrons    = 86
  Nalpha       = 43
  Nbeta        = 43

  ==> Algorithm <==

  SCF Algorithm Type is DF.
  DIIS enabled.
  MOM disabled.
  Fractional occupation disabled.
  Guess Type is READ.
  Energy threshold   = 1.00e-10
  Density threshold  = 1.00e-10
  Integral threshold = 1.00e-12

  ==> Primary Basis <==

  Basis Set: CC-PVDZ
    Blend: CC-PVDZ
    Number of shells: 114
    Number of basis functions: 238
    Number of Cartesian functions: 250
    Spherical Harmonics?: true
    Max angular momentum: 2

   => Loading Basis Set <=

    Name: (CC-PVDZ AUX)
    Role: JKFIT
    Keyword: DF_BASIS_SCF
    atoms 1-7, 13-16, 18  entry C          line   121 file /home/maxbuskirk/.conda/envs/psifour/share/psi4/basis/cc-pvdz-jkfit.gbs 
    atoms 8-12, 17, 19-26 entry H          line    51 file /home/maxbuskirk/.conda/envs/psifour/share/psi4/basis/cc-pvdz-jkfit.gbs 

   => Loading Basis Set <=

    Name: CC-PVDZ
    Role: ORBITAL
    Keyword: BASIS
    atoms 1-7, 13-16, 18  entry C          line   138 file /home/maxbuskirk/.conda/envs/psifour/share/psi4/basis/cc-pvdz.gbs 
    atoms 8-12, 17, 19-26 entry H          line    22 file /home/maxbuskirk/.conda/envs/psifour/share/psi4/basis/cc-pvdz.gbs 

  Reading orbitals from file /local_scratch/pbs.4067451.pbs02/rH.mol.1603504.180.npy, no projection.

  ==> Integral Setup <==

  ==> DiskDFJK: Density-Fitted J/K Matrices <==

    J tasked:                  Yes
    K tasked:                  Yes
    wK tasked:                  No
    OpenMP threads:              1
    Integrals threads:           1
    Memory [MiB]:              375
    Algorithm:                Core
    Integral Cache:           NONE
    Schwarz Cutoff:          1E-12
    Fitting Condition:       1E-10

   => Auxiliary Basis Set <=

  Basis Set: (CC-PVDZ AUX)
    Blend: CC-PVDZ-JKFIT
    Number of shells: 414
    Number of basis functions: 1162
    Number of Cartesian functions: 1322
    Spherical Harmonics?: true
    Max angular momentum: 3

  Minimum eigenvalue in the overlap matrix is 3.2553611445E-04.
  Reciprocal condition number of the overlap matrix is 4.6944629592E-05.
    Using symmetric orthogonalization.

  ==> Pre-Iterations <==

  SCF Guess: Orbitals guess was supplied from a previous computation.

   -------------------------------------------------------
    Irrep   Nso     Nmo     Nalpha   Nbeta   Ndocc  Nsocc
   -------------------------------------------------------
     A        238     238      43      43      43       0
   -------------------------------------------------------
    Total     238     238      43      43      43       0
   -------------------------------------------------------

  ==> Iterations <==

                           Total Energy        Delta E     RMS |[F,P]|

   @DF-RHF iter   0:  -462.39472633075923   -4.62395e+02   1.47398e-03 
   @DF-RHF iter   1:  -462.56886491545862   -1.74139e-01   2.66436e-04 DIIS
   @DF-RHF iter   2:  -462.57071661115879   -1.85170e-03   1.33894e-04 DIIS
   @DF-RHF iter   3:  -462.57122667224974   -5.10061e-04   1.31608e-05 DIIS
   @DF-RHF iter   4:  -462.57123452607954   -7.85383e-06   6.20124e-06 DIIS
   @DF-RHF iter   5:  -462.57123593379310   -1.40771e-06   1.36127e-06 DIIS
   @DF-RHF iter   6:  -462.57123605351291   -1.19720e-07   6.00029e-07 DIIS
   @DF-RHF iter   7:  -462.57123607488461   -2.13717e-08   2.09069e-07 DIIS
   @DF-RHF iter   8:  -462.57123607875184   -3.86723e-09   5.91110e-08 DIIS
   @DF-RHF iter   9:  -462.57123607918783   -4.35989e-10   2.59851e-08 DIIS
   @DF-RHF iter  10:  -462.57123607928406   -9.62359e-11   1.20033e-08 DIIS
   @DF-RHF iter  11:  -462.57123607931487   -3.08091e-11   4.21226e-09 DIIS
   @DF-RHF iter  12:  -462.57123607931851   -3.63798e-12   1.52779e-09 DIIS
   @DF-RHF iter  13:  -462.57123607931942   -9.09495e-13   5.04743e-10 DIIS
   @DF-RHF iter  14:  -462.57123607932056   -1.13687e-12   1.50261e-10 DIIS
   @DF-RHF iter  15:  -462.57123607931999    5.68434e-13   4.73359e-11 DIIS
  Energy and wave function converged.


  ==> Post-Iterations <==

    Orbital Energies [Eh]
    ---------------------

    Doubly Occupied:                                                      

       1A    -11.242611     2A    -11.240414     3A    -11.239987  
       4A    -11.237361     5A    -11.237126     6A    -11.235865  
       7A    -11.235532     8A    -11.233418     9A    -11.228594  
      10A    -11.228015    11A    -11.227047    12A    -11.226229  
      13A     -1.182608    14A     -1.135048    15A     -1.036226  
      16A     -1.010911    17A     -1.004987    18A     -0.951450  
      19A     -0.844842    20A     -0.821586    21A     -0.809973  
      22A     -0.770783    23A     -0.736282    24A     -0.695298  
      25A     -0.656320    26A     -0.632886    27A     -0.616301  
      28A     -0.608633    29A     -0.579121    30A     -0.573832  
      31A     -0.563536    32A     -0.562503    33A     -0.519319  
      34A     -0.496025    35A     -0.488417    36A     -0.477956  
      37A     -0.470443    38A     -0.466423    39A     -0.461476  
      40A     -0.409642    41A     -0.385201    42A     -0.329555  
      43A     -0.315258  

    Virtual:                                                              

      44A      0.132659    45A      0.137550    46A      0.178051  
      47A      0.193891    48A      0.200322    49A      0.210363  
      50A      0.229865    51A      0.232836    52A      0.241543  
      53A      0.253001    54A      0.258541    55A      0.261578  
      56A      0.265975    57A      0.283395    58A      0.300254  
      59A      0.305101    60A      0.338287    61A      0.350105  
      62A      0.354648    63A      0.376612    64A      0.393567  
      65A      0.417120    66A      0.423786    67A      0.447280  
      68A      0.464936    69A      0.484629    70A      0.492082  
      71A      0.506963    72A      0.522539    73A      0.566568  
      74A      0.598989    75A      0.627834    76A      0.635755  
      77A      0.659897    78A      0.662870    79A      0.679286  
      80A      0.687145    81A      0.693665    82A      0.709941  
      83A      0.719160    84A      0.722774    85A      0.730716  
      86A      0.733710    87A      0.737693    88A      0.749296  
      89A      0.750255    90A      0.759870    91A      0.790543  
      92A      0.809756    93A      0.817611    94A      0.830543  
      95A      0.838207    96A      0.853180    97A      0.864114  
      98A      0.866109    99A      0.870189   100A      0.877079  
     101A      0.884756   102A      0.891832   103A      0.895887  
     104A      0.900908   105A      0.905813   106A      0.908881  
     107A      0.914846   108A      0.920544   109A      0.930203  
     110A      0.941194   111A      0.951445   112A      0.957278  
     113A      0.971980   114A      0.981568   115A      0.991865  
     116A      1.013089   117A      1.051019   118A      1.108692  
     119A      1.139568   120A      1.145831   121A      1.156649  
     122A      1.158276   123A      1.165179   124A      1.181473  
     125A      1.239367   126A      1.244618   127A      1.248306  
     128A      1.278706   129A      1.287372   130A      1.298080  
     131A      1.304516   132A      1.320777   133A      1.344004  
     134A      1.365516   135A      1.396519   136A      1.419933  
     137A      1.429698   138A      1.459738   139A      1.468345  
     140A      1.476763   141A      1.501880   142A      1.526733  
     143A      1.553367   144A      1.598622   145A      1.616459  
     146A      1.656496   147A      1.682631   148A      1.701819  
     149A      1.729179   150A      1.738389   151A      1.751836  
     152A      1.763149   153A      1.776854   154A      1.788998  
     155A      1.802063   156A      1.826225   157A      1.834385  
     158A      1.852965   159A      1.864647   160A      1.868671  
     161A      1.875628   162A      1.891612   163A      1.897674  
     164A      1.910066   165A      1.918114   166A      1.919419  
     167A      1.932005   168A      1.933587   169A      1.941707  
     170A      1.952753   171A      1.964831   172A      1.970523  
     173A      1.979200   174A      1.987058   175A      1.995279  
     176A      2.003179   177A      2.018094   178A      2.041556  
     179A      2.044997   180A      2.054713   181A      2.057748  
     182A      2.077100   183A      2.086486   184A      2.100380  
     185A      2.122541   186A      2.140067   187A      2.146466  
     188A      2.154519   189A      2.164124   190A      2.179404  
     191A      2.195067   192A      2.221014   193A      2.232906  
     194A      2.254420   195A      2.259323   196A      2.268911  
     197A      2.270736   198A      2.287553   199A      2.295448  
     200A      2.301355   201A      2.320461   202A      2.363875  
     203A      2.380383   204A      2.398937   205A      2.419277  
     206A      2.451890   207A      2.452499   208A      2.464104  
     209A      2.479517   210A      2.489311   211A      2.543012  
     212A      2.569226   213A      2.599377   214A      2.613812  
     215A      2.640290   216A      2.681110   217A      2.707762  
     218A      2.747678   219A      2.756087   220A      2.771290  
     221A      2.778742   222A      2.781268   223A      2.788784  
     224A      2.807455   225A      2.842555   226A      2.904733  
     227A      2.914932   228A      2.952780   229A      2.968309  
     230A      3.005428   231A      3.018230   232A      3.031218  
     233A      3.102320   234A      3.123724   235A      3.180952  
     236A      3.225687   237A      3.273898   238A      3.910476  

    Final Occupation by Irrep:
              A 
    DOCC [    43 ]

  @DF-RHF Final Energy:  -462.57123607931999

   => Energetics <=

    Nuclear Repulsion Energy =            667.4790647091414257
    One-Electron Energy =               -1949.2505222114587013
    Two-Electron Energy =                 819.2002214229974015
    Total Energy =                       -462.5712360793199878

Computation Completed


Properties will be evaluated at   0.000000,   0.000000,   0.000000 [a0]

Properties computed using the SCF density matrix

  Nuclear Dipole Moment: [e a0]
     X:     7.2947      Y:     1.4991      Z:    -0.1795

  Electronic Dipole Moment: [e a0]
     X:    -7.1800      Y:    -1.5139      Z:     0.1980

  Dipole Moment: [e a0]
     X:     0.1147      Y:    -0.0148      Z:     0.0186     Total:     0.1172

  Dipole Moment: [D]
     X:     0.2916      Y:    -0.0377      Z:     0.0472     Total:     0.2978


*** tstop() called on skystd35.palmetto.clemson.edu at Tue Nov 23 22:11:48 2021
Module time:
	user time   =      14.19 seconds =       0.24 minutes
	system time =       0.37 seconds =       0.01 minutes
	total time  =         14 seconds =       0.23 minutes
Total time:
	user time   =      85.57 seconds =       1.43 minutes
	system time =       2.53 seconds =       0.04 minutes
	total time  =         88 seconds =       1.47 minutes

*** tstart() called on skystd35.palmetto.clemson.edu
*** at Tue Nov 23 22:11:48 2021


  //>>>>>>>>>>>>>>>>>>>>>>>>>>>>>>>>>>>//
  //               DFMP2               //
  //<<<<<<<<<<<<<<<<<<<<<<<<<<<<<<<<<<<//

   => Loading Basis Set <=

    Name: (CC-PVDZ AUX)
    Role: RIFIT
    Keyword: DF_BASIS_MP2
    atoms 1-7, 13-16, 18  entry C          line   159 file /home/maxbuskirk/.conda/envs/psifour/share/psi4/basis/cc-pvdz-ri.gbs 
    atoms 8-12, 17, 19-26 entry H          line    19 file /home/maxbuskirk/.conda/envs/psifour/share/psi4/basis/cc-pvdz-ri.gbs 

	 --------------------------------------------------------
	                          DF-MP2                         
	      2nd-Order Density-Fitted Moller-Plesset Theory     
	              RMP2 Wavefunction,   1 Threads             
	                                                         
	        Rob Parrish, Justin Turney, Andy Simmonett,      
	           Ed Hohenstein, and C. David Sherrill          
	 --------------------------------------------------------

   => Auxiliary Basis Set <=

  Basis Set: (CC-PVDZ AUX)
    Blend: CC-PVDZ-RI
    Number of shells: 300
    Number of basis functions: 868
    Number of Cartesian functions: 1002
    Spherical Harmonics?: true
    Max angular momentum: 3

	 --------------------------------------------------------
	                 NBF =   238, NAUX =   868
	 --------------------------------------------------------
	   CLASS    FOCC     OCC    AOCC    AVIR     VIR    FVIR
	   PAIRS       0      43      43     195     195       0
	 --------------------------------------------------------


         ------------------------------------------------------------
                                     CPHF                           
                                  Rob Parrish                       
         ------------------------------------------------------------

  ==> Geometry <==

    Molecular point group: c1
    Full point group: C1

    Geometry (in Angstrom), charge = 0, multiplicity = 1:

       Center              X                  Y                   Z               Mass       
    ------------   -----------------  -----------------  -----------------  -----------------
         C            0.704987572972     0.559931314303    -0.413919094560    12.000000000000
         C           -0.645849892358     0.042616131690    -0.019456870874    12.000000000000
         C           -0.743680471692    -0.914468402789     1.006314698097    12.000000000000
         C           -1.992484184035    -1.412921267879     1.405797851423    12.000000000000
         C           -3.164626555774    -0.956246640844     0.782071038377    12.000000000000
         C           -3.078562502879     0.003069986494    -0.238255070994    12.000000000000
         C           -1.825891504676     0.499733203715    -0.632822993957    12.000000000000
         H           -1.766238291655     1.255722606073    -1.424432278906     1.007825032230
         H           -3.990284177099     0.367422761792    -0.725441070030     1.007825032230
         H           -4.140945921099    -1.345217832560     1.092424978940     1.007825032230
         H           -2.051877326345    -2.161133801162     2.204526667424     1.007825032230
         H            0.168895931828    -1.277902947036     1.495086359894     1.007825032230
         C            1.503459976946     1.394904484551     0.591238312464    12.000000000000
         C            2.756315759288     0.550373506485     0.897727594700    12.000000000000
         C            3.069343997030    -0.165265516181    -0.432476841543    12.000000000000
         C            1.692941527634    -0.418966121709    -1.052252329427    12.000000000000
         H            1.401664679582    -1.454383608019    -1.250098652683     1.007825032230
         C            1.070529835044     0.682940926393    -1.877889534442    12.000000000000
         H            0.324156239356     0.385794709997    -2.619321364121     1.007825032230
         H            1.707961326366     1.520677553094    -2.180359719168     1.007825032230
         H            3.624828019733    -1.105067073415    -0.275041495170     1.007825032230
         H            3.686129085027     0.480312018833    -1.086240817493     1.007825032230
         H            2.511387862416    -0.201088835633     1.670347757809     1.007825032230
[...]
	   83 D(1,2,3,4)      =    178.093020    -0.000000    -0.062497   178.030523
	   84 D(1,2,3,12)     =     -2.621791    -0.000000    -0.058763    -2.680555
	   85 D(1,2,7,6)      =   -178.236713     0.000000     0.071449  -178.165263
	   86 D(1,2,7,8)      =      1.572908     0.000000     0.097277     1.670185
	   87 D(1,13,14,15)   =     33.770557    -0.000000     0.039609    33.810166
	   88 D(1,13,14,23)   =    -82.280458    -0.000000     0.049239   -82.231218
	   89 D(1,13,14,24)   =    158.019894    -0.000000     0.041808   158.061702
	   90 D(1,16,15,14)   =     19.632956    -0.000000     0.036146    19.669102
	   91 D(1,16,15,21)   =    140.914808    -0.000000     0.039494   140.954302
	   92 D(1,16,15,22)   =    -99.548522     0.000000     0.051634   -99.496888
	   93 D(1,16,18,19)   =   -107.834534     0.000000     0.046392  -107.788141
	   94 D(1,16,18,20)   =    108.134805    -0.000000     0.017595   108.152400
	   95 D(1,18,16,15)   =    -95.964298     0.000000     0.011842   -95.952456
	   96 D(1,18,16,17)   =    109.524380     0.000000     0.014172   109.538552
	   97 D(2,1,13,14)    =    120.375885     0.000000     0.024073   120.399959
	   98 D(2,1,13,25)    =     -1.120619     0.000000     0.028571    -1.092048
	   99 D(2,1,13,26)    =   -120.210524    -0.000000     0.006441  -120.204083
	  100 D(2,1,16,15)    =   -139.317110    -0.000000    -0.043105  -139.360215
	  101 D(2,1,16,17)    =      2.651047    -0.000000    -0.056992     2.594056
	  102 D(2,1,16,18)    =    109.044746    -0.000000    -0.052671   108.992075
	  103 D(2,1,18,16)    =   -111.430961     0.000000    -0.045452  -111.476414
	  104 D(2,1,18,19)    =     -4.162648     0.000000    -0.018233    -4.180881
	  105 D(2,1,18,20)    =    140.811455     0.000000    -0.033347   140.778108
	  106 D(2,3,4,5)      =      0.074738    -0.000000    -0.004659     0.070079
	  107 D(2,3,4,11)     =    179.659732     0.000000    -0.002077   179.657656
	  108 D(2,7,6,5)      =      0.279992    -0.000000    -0.015207     0.264785
	  109 D(2,7,6,9)      =   -179.854460    -0.000000     0.003139  -179.851321
	  110 D(3,2,1,13)     =    -68.830872    -0.000000    -0.745837   -69.576708
	  111 D(3,2,1,16)     =     66.947588    -0.000000    -0.695363    66.252224
	  112 D(3,2,1,18)     =    138.017083    -0.000000    -0.689780   137.327303
	  113 D(3,2,7,6)      =     -0.304479     0.000000     0.023206    -0.281273
	  114 D(3,2,7,8)      =    179.505142     0.000000     0.049034   179.554176
	  115 D(3,4,5,6)      =     -0.102890     0.000000     0.012990    -0.089900
	  116 D(3,4,5,10)     =    179.725423     0.000000    -0.001056   179.724367
	  117 D(4,3,2,7)      =      0.127423    -0.000000    -0.013316     0.114107
	  118 D(4,5,6,7)      =     -0.072658    -0.000000    -0.003181    -0.075839
	  119 D(4,5,6,9)      =   -179.937973    -0.000000    -0.021566  -179.959538
	  120 D(5,4,3,12)     =   -179.203847    -0.000000    -0.008360  -179.212208
	  121 D(5,6,7,8)      =   -179.527813    -0.000000    -0.041224  -179.569037
	  122 D(6,5,4,11)     =   -179.687311    -0.000000     0.010398  -179.676913
	  123 D(7,2,1,13)     =    109.075580    -0.000000    -0.795099   108.280482
	  124 D(7,2,1,16)     =   -115.145960    -0.000000    -0.744625  -115.890586
	  125 D(7,2,1,18)     =    -44.076465    -0.000000    -0.739042   -44.815507
	  126 D(7,2,3,12)     =    179.412611    -0.000000    -0.009582   179.403029
	  127 D(7,6,5,10)     =   -179.900919    -0.000000     0.010858  -179.890061
	  128 D(8,7,6,9)      =      0.337735    -0.000000    -0.022878     0.314857
	  129 D(9,6,5,10)     =      0.233766    -0.000000    -0.007526     0.226240
	  130 D(10,5,4,11)    =      0.141002    -0.000000    -0.003648     0.137355
	  131 D(11,4,3,12)    =      0.381147     0.000000    -0.005778     0.375369
	  132 D(13,1,16,15)   =      1.121194     0.000000    -0.007741     1.113453
	  133 D(13,1,16,17)   =    143.089351    -0.000000    -0.021628   143.067723
	  134 D(13,1,16,18)   =   -110.516950    -0.000000    -0.017307  -110.534257
	  135 D(13,1,18,16)   =     94.605433     0.000000     0.015647    94.621081
	  136 D(13,1,18,19)   =   -158.126253     0.000000     0.042867  -158.083387
	  137 D(13,1,18,20)   =    -13.152150     0.000000     0.027752   -13.124398
	  138 D(13,14,15,16)  =    -32.865021    -0.000000    -0.049915   -32.914936
	  139 D(13,14,15,21)  =   -153.873664    -0.000000    -0.051311  -153.924975
	  140 D(13,14,15,22)  =     86.379105    -0.000000    -0.056212    86.322892
	  141 D(14,13,1,16)   =    -21.493196     0.000000    -0.022165   -21.515361
	  142 D(14,13,1,18)   =    -85.226552    -0.000000    -0.045418   -85.271970
	  143 D(14,15,16,17)  =   -122.015349     0.000000     0.039845  -121.975504
	  144 D(14,15,16,18)  =     84.161520     0.000000     0.037668    84.199188
	  145 D(15,14,13,25)  =    154.307324    -0.000000     0.033515   154.340839
	  146 D(15,14,13,26)  =    -85.422831     0.000000     0.045465   -85.377366
	  147 D(15,16,1,18)   =    111.638144     0.000000     0.009566   111.647710
	  148 D(15,16,18,19)  =    156.201168     0.000000     0.058234   156.259403
	  149 D(15,16,18,20)  =     12.170507     0.000000     0.029438    12.199944
	  150 D(16,1,13,25)   =   -142.989700     0.000000    -0.017668  -143.007368
	  151 D(16,1,13,26)   =     97.920395     0.000000    -0.039797    97.880597
	  152 D(16,1,18,19)   =    107.268313    -0.000000     0.027220   107.295533
	  153 D(16,1,18,20)   =   -107.757583    -0.000000     0.012105  -107.745478
	  154 D(16,15,14,23)  =     83.157889     0.000000    -0.058903    83.098986
	  155 D(16,15,14,24)  =   -157.063230     0.000000    -0.052152  -157.115382
	  156 D(17,16,1,18)   =   -106.393699     0.000000    -0.004320  -106.398019
	  157 D(17,16,15,21)  =     -0.733497     0.000000     0.043194    -0.690304
	  158 D(17,16,15,22)  =    118.803173     0.000000     0.055334   118.858507
	  159 D(17,16,18,19)  =      1.689846     0.000000     0.060565     1.750410
	  160 D(17,16,18,20)  =   -142.340816    -0.000000     0.031768  -142.309048
	  161 D(18,1,13,25)   =    153.276944    -0.000000    -0.040920   153.236023
	  162 D(18,1,13,26)   =     34.187038    -0.000000    -0.063050    34.123989
	  163 D(18,16,15,21)  =   -154.556628     0.000000     0.041017  -154.515612
	  164 D(18,16,15,22)  =    -35.019958     0.000000     0.053156   -34.966802
	  165 D(21,15,14,23)  =    -37.850754    -0.000000    -0.060300   -37.911054
	  166 D(21,15,14,24)  =     81.928127    -0.000000    -0.053548    81.874579
	  167 D(22,15,14,23)  =   -157.597986    -0.000000    -0.065201  -157.663186
	  168 D(22,15,14,24)  =    -37.819104    -0.000000    -0.058449   -37.877554
	  169 D(23,14,13,25)  =     38.256309    -0.000000     0.043145    38.299455
	  170 D(23,14,13,26)  =    158.526154     0.000000     0.055096   158.581250
	  171 D(24,14,13,25)  =    -81.443339    -0.000000     0.035713   -81.407625
	  172 D(24,14,13,26)  =     38.826506     0.000000     0.047664    38.874170
	  173 R(3,14)         =      3.891728     0.000247     0.003888     3.895616
	 ---------------------------------------------------------------------------
	Successfully symmetrized geometry.

  ==> Convergence Check <==

  Measures of convergence in internal coordinates in au.
  Criteria marked as inactive (o), active & met (*), and active & unmet ( ).
  ---------------------------------------------------------------------------------------------
   Step     Total Energy     Delta E     MAX Force     RMS Force      MAX Disp      RMS Disp   
  ---------------------------------------------------------------------------------------------
    Convergence Criteria    1.00e-06 *    3.00e-04 *             o    1.20e-03 *             o
  ---------------------------------------------------------------------------------------------
      8    -464.22354632   -8.40e-07 *    3.79e-05 *    9.41e-06 o    1.39e-02      2.51e-03 o  ~
  ---------------------------------------------------------------------------------------------


  **** Optimization is complete! (in 8 steps) ****

  ==> Optimization Summary <==

  Measures of convergence in internal coordinates in au.
  --------------------------------------------------------------------------------------------------------------- ~
   Step         Total Energy             Delta E       MAX Force       RMS Force        MAX Disp        RMS Disp  ~
  --------------------------------------------------------------------------------------------------------------- ~
      1    -464.195927551131   -464.195927551131      0.07365079      0.01366943      0.11798142      0.02411592  ~
      2    -464.222664239788     -0.026736688657      0.00309617      0.00071954      0.09494681      0.01681661  ~
      3    -464.223395070047     -0.000730830259      0.00102266      0.00028483      0.06352298      0.00932418  ~
      4    -464.223523278904     -0.000128208857      0.00029180      0.00009206      0.01478178      0.00415343  ~
      5    -464.223540333543     -0.000017054639      0.00018255      0.00004186      0.00780407      0.00233619  ~
      6    -464.223544340271     -0.000004006728      0.00008425      0.00002018      0.00650221      0.00139465  ~
      7    -464.223545483156     -0.000001142885      0.00003830      0.00001032      0.00778051      0.00139531  ~
      8    -464.223546322824     -0.000000839668      0.00003788      0.00000941      0.01387709      0.00250747  ~
  --------------------------------------------------------------------------------------------------------------- ~

	Writing optimization data to binary file.
	Final energy is   -464.2235463228237
	Final (previous) structure:
	Cartesian Geometry (in Angstrom)
	    C     0.7282961659   0.4389373085  -0.4268129568
	    C    -0.6452801305   0.0257164936  -0.0123645374
	    C    -0.8144957417  -0.8826296962   1.0537318527
	    C    -2.0967629724  -1.2533970311   1.4850570930
	    C    -3.2333774921  -0.7203625071   0.8531000829
	    C    -3.0773574896   0.1850002075  -0.2085939112
	    C    -1.7915406473   0.5563287688  -0.6348200867
	    H    -1.6701361611   1.2682341621  -1.4576239328
	    H    -3.9581233006   0.6046593978  -0.7044744261
	    H    -4.2342796645  -1.0117261375   1.1850778356
	    H    -2.2108850481  -1.9635576821   2.3099172621
	    H     0.0715962677  -1.3080405842   1.5376573992
	    C     1.5563962053   1.3208418815   0.5267217675
	    C     2.8198508437   0.4907473200   0.8281112357
	    C     3.0992490144  -0.2840557721  -0.4761765450
	    C     1.7118520535  -0.5494089498  -1.0603230795
	    H     1.3877332350  -1.5761239145  -1.2548090836
	    C     1.0834260401   0.5501573421  -1.8942246630
	    H     0.3225556218   0.2507687364  -2.6205776771
	    H     1.7247415727   1.3822128098  -2.2040349958
	    H     3.6500852748  -1.2202467264  -0.2927137273
	    H     3.7079785377   0.3236018565  -1.1695936148
	    H     2.5847847144  -0.2340131535   1.6278125022
	    H     3.6738397691   1.1001696792   1.1692993997
	    H     0.9849270253   1.5614703855   1.4370550866
	    H     1.8206427309   2.2767082695   0.0392454488
	Saving final (previous) structure.
	Cleaning optimization helper files.
			--------------------------
			 OPTKING Finished Execution 
			--------------------------

    Final optimized geometry and variables:
    Molecular point group: c1
    Full point group: C1

    Geometry (in Angstrom), charge = 0, multiplicity = 1:

    C            0.728296168738     0.438937310270    -0.426812958463
    C           -0.645280133049     0.025716493681    -0.012364537426
    C           -0.814495744876    -0.882629699697     1.053731856881
    C           -2.096762980639    -1.253397036015     1.485057098872
    C           -3.233377504775    -0.720362509952     0.853100086226
    C           -3.077357501725     0.185000208266    -0.208593912053
    C           -1.791540654347     0.556328770974    -0.634820089208
    H           -1.670136167622     1.268234167038    -1.457623938486
    H           -3.958123316192     0.604659400219    -0.704474428855
    H           -4.234279681104    -1.011726141473     1.185077840289
    H           -2.210885056779    -1.963557689809     2.309917271167
    H            0.071596268001    -1.308040589377     1.537657405270
    C            1.556396211431     1.320841886679     0.526721769598
    C            2.819850854809     0.490747321978     0.828111238940
    C            3.099249026631    -0.284055773214    -0.476176546841
    C            1.711852060253    -0.549408951981    -1.060323083634
    H            1.387733240437    -1.576123920735    -1.254809088548
    C            1.083426044344     0.550157344219    -1.894224670459
    H            0.322555623061     0.250768737345    -2.620577687386
    H            1.724741579494     1.382212815237    -2.204035004431
    H            3.650085289101    -1.220246731175    -0.292713728416
    H            3.707978552289     0.323601857747    -1.169593619360
    H            2.584784724594    -0.234013154392     1.627812508635
    H            3.673839783574     1.100169683553     1.169299404275
    H            0.984927029157     1.561470391672     1.437055092256
    H            1.820642738017     2.276708278441     0.039245448964

	Removing binary optimization data file.
	Cleaning optimization helper files.


Properties will be evaluated at   0.000000,   0.000000,   0.000000 [a0]
OEProp: No title given, name of density matrix used for the following properties is 'DF-MP2 relaxed density'
  Mulliken Charges: (a.u.)
   Center  Symbol    Alpha    Beta     Spin     Total
       1     C     3.12317  3.12317  0.00000 -0.24634
       2     C     3.02796  3.02796  0.00000 -0.05592
       3     C     2.99354  2.99354  0.00000  0.01292
       4     C     3.00429  3.00429  0.00000 -0.00859
       5     C     3.00910  3.00910  0.00000 -0.01821
       6     C     3.00455  3.00455  0.00000 -0.00910
       7     C     2.99809  2.99809  0.00000  0.00383
       8     H     0.49630  0.49630  0.00000  0.00740
       9     H     0.49094  0.49094  0.00000  0.01812
      10     H     0.49101  0.49101  0.00000  0.01798
      11     H     0.49132  0.49132  0.00000  0.01737
      12     H     0.49785  0.49785  0.00000  0.00430
      13     C     2.98030  2.98030  0.00000  0.03941
      14     C     3.02898  3.02898  0.00000 -0.05796
      15     C     3.00020  3.00020  0.00000 -0.00041
      16     C     3.05322  3.05322  0.00000 -0.10645
      17     H     0.48798  0.48798  0.00000  0.02403
      18     C     2.97268  2.97268  0.00000  0.05464
      19     H     0.47744  0.47744  0.00000  0.04512
      20     H     0.48191  0.48191  0.00000  0.03617
      21     H     0.47982  0.47982  0.00000  0.04036
      22     H     0.48155  0.48155  0.00000  0.03689
      23     H     0.48052  0.48052  0.00000  0.03896
      24     H     0.48513  0.48513  0.00000  0.02974
      25     H     0.47999  0.47999  0.00000  0.04002
      26     H     0.48214  0.48214  0.00000  0.03572

   Total alpha = 43.00000, Total beta = 43.00000, Total charge = -0.00000

    Molecular point group: c1
    Full point group: C1

    Geometry (in Angstrom), charge = 0, multiplicity = 1:

       Center              X                  Y                   Z               Mass       
    ------------   -----------------  -----------------  -----------------  -----------------
         C            0.728296168738     0.438937310270    -0.426812958463    12.000000000000
         C           -0.645280133049     0.025716493681    -0.012364537426    12.000000000000
         C           -0.814495744876    -0.882629699697     1.053731856881    12.000000000000
         C           -2.096762980639    -1.253397036015     1.485057098872    12.000000000000
         C           -3.233377504775    -0.720362509952     0.853100086226    12.000000000000
         C           -3.077357501725     0.185000208266    -0.208593912053    12.000000000000
         C           -1.791540654347     0.556328770974    -0.634820089208    12.000000000000
         H           -1.670136167622     1.268234167038    -1.457623938486     1.007825032230
         H           -3.958123316192     0.604659400219    -0.704474428855     1.007825032230
         H           -4.234279681104    -1.011726141473     1.185077840289     1.007825032230
         H           -2.210885056779    -1.963557689809     2.309917271167     1.007825032230
         H            0.071596268001    -1.308040589377     1.537657405270     1.007825032230
         C            1.556396211431     1.320841886679     0.526721769598    12.000000000000
         C            2.819850854809     0.490747321978     0.828111238940    12.000000000000
         C            3.099249026631    -0.284055773214    -0.476176546841    12.000000000000
         C            1.711852060253    -0.549408951981    -1.060323083634    12.000000000000
         H            1.387733240437    -1.576123920735    -1.254809088548     1.007825032230
         C            1.083426044344     0.550157344219    -1.894224670459    12.000000000000
         H            0.322555623061     0.250768737345    -2.620577687386     1.007825032230
         H            1.724741579494     1.382212815237    -2.204035004431     1.007825032230
         H            3.650085289101    -1.220246731175    -0.292713728416     1.007825032230
         H            3.707978552289     0.323601857747    -1.169593619360     1.007825032230
         H            2.584784724594    -0.234013154392     1.627812508635     1.007825032230
         H            3.673839783574     1.100169683553     1.169299404275     1.007825032230
         H            0.984927029157     1.561470391672     1.437055092256     1.007825032230
         H            1.820642738017     2.276708278441     0.039245448964     1.007825032230



  Variable Map:
  ----------------------------------------------------------------------------
  "CURRENT CORRELATION ENERGY"           =>      -1.651202459661
  "CURRENT DIPOLE X"                     =>       0.263589749532
  "CURRENT DIPOLE Y"                     =>      -0.036033950587
  "CURRENT DIPOLE Z"                     =>       0.061066510860
  "CURRENT ENERGY"                       =>    -464.223546322824
  "CURRENT REFERENCE ENERGY"             =>    -462.572343863163
  "CUSTOM SCS-MP2 CORRELATION ENERGY"    =>      -1.609403303918
  "CUSTOM SCS-MP2 TOTAL ENERGY"          =>    -464.181747167081
  "HF TOTAL ENERGY"                      =>    -462.572343863163
  "MP2 CORRELATION ENERGY"               =>      -1.651202459661
  "MP2 DOUBLES ENERGY"                   =>      -1.651202459661
  "MP2 OPPOSITE-SPIN CORRELATION ENERGY" =>      -1.221925943113
  "MP2 SAME-SPIN CORRELATION ENERGY"     =>      -0.429276516548
  "MP2 SINGLES ENERGY"                   =>      -0.000000000000
  "MP2 TOTAL ENERGY"                     =>    -464.223546322824
  "NUCLEAR REPULSION ENERGY"             =>     665.971467131737
  "ONE-ELECTRON ENERGY"                  =>   -1946.234991753345
  "OPTIMIZATION ITERATIONS"              =>       8.000000000000
  "PCM POLARIZATION ENERGY"              =>       0.000000000000
  "PE ENERGY"                            =>       0.000000000000
  "SCF DIPOLE X"                         =>       0.263589749532
  "SCF DIPOLE Y"                         =>      -0.036033950587
  "SCF DIPOLE Z"                         =>       0.061066510860
  "SCF ITERATION ENERGY"                 =>    -462.572343863163
  "SCF ITERATIONS"                       =>      13.000000000000
  "SCF TOTAL ENERGY"                     =>    -462.572343863163
  "SCS-MP2 CORRELATION ENERGY"           =>      -1.609403303918
  "SCS-MP2 TOTAL ENERGY"                 =>    -464.181747167081
  "TWO-ELECTRON ENERGY"                  =>     817.691180758445



    Psi4 stopped on: Tuesday, 23 November 2021 10:20PM
    Psi4 wall time for execution: 0:09:46.89

*** Psi4 exiting successfully. Buy a developer a beer!
