
    -----------------------------------------------------------------------
          Psi4: An Open-Source Ab Initio Electronic Structure Package
                               Psi4 1.4 release

                         Git: Rev {HEAD} 9485035 


    D. G. A. Smith, L. A. Burns, A. C. Simmonett, R. M. Parrish,
    M. C. Schieber, R. Galvelis, P. Kraus, H. Kruse, R. Di Remigio,
    A. Alenaizan, A. M. James, S. Lehtola, J. P. Misiewicz, M. Scheurer,
    R. A. Shaw, J. B. Schriber, Y. Xie, Z. L. Glick, D. A. Sirianni,
    J. S. O'Brien, J. M. Waldrop, A. Kumar, E. G. Hohenstein,
    B. P. Pritchard, B. R. Brooks, H. F. Schaefer III, A. Yu. Sokolov,
    K. Patkowski, A. E. DePrince III, U. Bozkaya, R. A. King,
    F. A. Evangelista, J. M. Turney, T. D. Crawford, C. D. Sherrill,
    J. Chem. Phys. 152(18) 184108 (2020). https://doi.org/10.1063/5.0006002

                            Additional Code Authors
    E. T. Seidl, C. L. Janssen, E. F. Valeev, M. L. Leininger,
    J. F. Gonthier, R. M. Richard, H. R. McAlexander, M. Saitow, X. Wang,
    P. Verma, and M. H. Lechner

             Previous Authors, Complete List of Code Contributors,
                       and Citations for Specific Modules
    https://github.com/psi4/psi4/blob/master/codemeta.json
    https://github.com/psi4/psi4/graphs/contributors
    http://psicode.org/psi4manual/master/introduction.html#citing-psifour

    -----------------------------------------------------------------------


    Psi4 started on: Thursday, 17 February 2022 11:52PM

    Process ID: 3276218
    Host:       skylm005.palmetto.clemson.edu
    PSIDATADIR: /home/maxbuskirk/.conda/envs/psifour/share/psi4
    Memory:     500.0 MiB
    Threads:    1
    
  ==> Input File <==

--------------------------------------------------------------------------
memory 62 GB

molecule mol {
0 1
C    0.00000000  0.00000000  0.00000000
C   -0.60596800 -1.22643900 -0.66495400
C   -2.02709400 -1.58300900 -0.50745700
C   -2.43823800 -2.92802500 -0.36687600
C   -3.79420800 -3.25362700 -0.21147700
C   -4.76604600 -2.24026400 -0.18223100
C   -4.36957100 -0.89748300 -0.29927000
C   -3.01413900 -0.57254200 -0.45292200
H   -2.71536900  0.47628700 -0.54544000
H   -5.11880500 -0.10042600 -0.26858100
H   -5.82299500 -2.49372900 -0.05807200
H   -4.09109700 -4.30103800 -0.09961600
H   -1.68164800 -3.71784500 -0.34781900
C    0.31906000 -1.84881900 -1.45135500
C    1.65382000 -1.13497300 -1.36532200
C    1.51129000 -0.28096600 -0.09259300
H    1.81230500 -0.88683600  0.77854100
H    2.12735300  0.63188600 -0.10372600
H    2.50985700 -1.83129300 -1.32897500
H    1.79496400 -0.50247100 -2.26494400
C    0.12013800 -2.99314900 -2.39942300
H   -0.94431100 -3.22404400 -2.55201200
H    0.56881600 -2.74955600 -3.37850200
H    0.62560000 -3.90646200 -2.03728700
H   -0.35400200  0.14438000  1.03432400
H   -0.26785300  0.91306400 -0.56714000
}

set scf_type df
set basis cc-pVDZ
set reference rhf

mol.update_geometry()
mol.symmetrize(1e-3)

e, wfn = optimize('CCSD', return_wfn=True)
oeprop(wfn, "MULLIKEN_CHARGES")
mol.print_out()
print_variables()
--------------------------------------------------------------------------

  Memory set to  57.742 GiB by Python driver.

Scratch directory: /scratch1/maxbuskirk/
gradient() will perform analytic gradient computation.

*** tstart() called on skylm005.palmetto.clemson.edu
*** at Thu Feb 17 23:52:35 2022

   => Loading Basis Set <=

    Name: CC-PVDZ
    Role: ORBITAL
    Keyword: BASIS
    atoms 1-8, 14-16, 21     entry C          line   138 file /home/maxbuskirk/.conda/envs/psifour/share/psi4/basis/cc-pvdz.gbs 
    atoms 9-13, 17-20, 22-26 entry H          line    22 file /home/maxbuskirk/.conda/envs/psifour/share/psi4/basis/cc-pvdz.gbs 


         ---------------------------------------------------------
                                   SCF
               by Justin Turney, Rob Parrish, Andy Simmonett
                          and Daniel G. A. Smith
                              RHF Reference
                        1 Threads,  59127 MiB Core
         ---------------------------------------------------------

  ==> Geometry <==

    Molecular point group: c1
    Full point group: C1

    Geometry (in Angstrom), charge = 0, multiplicity = 1:

       Center              X                  Y                   Z               Mass       
    ------------   -----------------  -----------------  -----------------  -----------------
         C            1.395102899955     1.576301044008     0.681538013955    12.000000000000
         C            0.789134899955     0.349862044008     0.016584013955    12.000000000000
         C           -0.631991100045    -0.006707955992     0.174081013955    12.000000000000
         C           -1.043135100045    -1.351723955992     0.314662013955    12.000000000000
         C           -2.399105100045    -1.677325955992     0.470061013955    12.000000000000
         C           -3.370943100045    -0.663962955992     0.499307013955    12.000000000000
         C           -2.974468100045     0.678818044008     0.382268013955    12.000000000000
         C           -1.619036100045     1.003759044008     0.228616013955    12.000000000000
         H           -1.320266100045     2.052588044008     0.136098013955     1.007825032230
         H           -3.723702100045     1.475875044008     0.412957013955     1.007825032230
         H           -4.427892100045    -0.917427955992     0.623466013955     1.007825032230
         H           -2.695994100045    -2.724736955992     0.581922013955     1.007825032230
         H           -0.286545100045    -2.141543955992     0.333719013955     1.007825032230
         C            1.714162899955    -0.272517955992    -0.769816986045    12.000000000000
         C            3.048922899955     0.441328044008    -0.683783986045    12.000000000000
         C            2.906392899955     1.295335044008     0.588945013955    12.000000000000
         H            3.207407899955     0.689465044008     1.460079013955     1.007825032230
         H            3.522455899955     2.208187044008     0.577812013955     1.007825032230
         H            3.904959899955    -0.254991955992    -0.647436986045     1.007825032230
         H            3.190066899955     1.073830044008    -1.583405986045     1.007825032230
         C            1.515240899955    -1.416847955992    -1.717884986045    12.000000000000
         H            0.450791899955    -1.647742955992    -1.870473986045     1.007825032230
         H            1.963918899955    -1.173254955992    -2.696963986045     1.007825032230
         H            2.020702899955    -2.330160955992    -1.355748986045     1.007825032230
         H            1.041100899955     1.720681044008     1.715862013955     1.007825032230
         H            1.127249899955     2.489365044008     0.114398013955     1.007825032230

  Running in c1 symmetry.

  Rotational constants: A =      0.06659  B =      0.01987  C =      0.01651 [cm^-1]
  Rotational constants: A =   1996.26826  B =    595.59257  C =    495.10526 [MHz]
  Nuclear repulsion =  651.177106682362592

  Charge       = 0
  Multiplicity = 1
  Electrons    = 86
  Nalpha       = 43
  Nbeta        = 43

  ==> Algorithm <==

  SCF Algorithm Type is DF.
  DIIS enabled.
  MOM disabled.
  Fractional occupation disabled.
  Guess Type is SAD.
  Energy threshold   = 1.00e-10
  Density threshold  = 1.00e-10
  Integral threshold = 1.00e-12

  ==> Primary Basis <==

  Basis Set: CC-PVDZ
    Blend: CC-PVDZ
    Number of shells: 114
    Number of basis functions: 238
    Number of Cartesian functions: 250
    Spherical Harmonics?: true
    Max angular momentum: 2

   => Loading Basis Set <=

    Name: (CC-PVDZ AUX)
    Role: JKFIT
    Keyword: DF_BASIS_SCF
    atoms 1-8, 14-16, 21     entry C          line   121 file /home/maxbuskirk/.conda/envs/psifour/share/psi4/basis/cc-pvdz-jkfit.gbs 
    atoms 9-13, 17-20, 22-26 entry H          line    51 file /home/maxbuskirk/.conda/envs/psifour/share/psi4/basis/cc-pvdz-jkfit.gbs 

  ==> Integral Setup <==

  DFHelper Memory: AOs need 0.464 GiB; user supplied 43.306 GiB. Using in-core AOs.

  ==> MemDFJK: Density-Fitted J/K Matrices <==

    J tasked:                   Yes
    K tasked:                   Yes
    wK tasked:                   No
    OpenMP threads:               1
    Memory [MiB]:             44345
    Algorithm:                 Core
    Schwarz Cutoff:           1E-12
    Mask sparsity (%):       9.4238
    Fitting Condition:        1E-10

   => Auxiliary Basis Set <=

  Basis Set: (CC-PVDZ AUX)
    Blend: CC-PVDZ-JKFIT
    Number of shells: 414
    Number of basis functions: 1162
    Number of Cartesian functions: 1322
    Spherical Harmonics?: true
    Max angular momentum: 3

  Minimum eigenvalue in the overlap matrix is 3.3020198466E-04.
  Reciprocal condition number of the overlap matrix is 5.1145627021E-05.
    Using symmetric orthogonalization.

  ==> Pre-Iterations <==

  SCF Guess: Superposition of Atomic Densities via on-the-fly atomic UHF (no occupation information).

   -------------------------
    Irrep   Nso     Nmo    
   -------------------------
     A        238     238 
   -------------------------
    Total     238     238
   -------------------------

  ==> Iterations <==

                           Total Energy        Delta E     RMS |[F,P]|

   @DF-RHF iter SAD:  -461.87019244051623   -4.61870e+02   0.00000e+00 
   @DF-RHF iter   1:  -462.34476678109041   -4.74574e-01   2.44105e-03 DIIS
   @DF-RHF iter   2:  -462.56036406846493   -2.15597e-01   1.02487e-03 DIIS
   @DF-RHF iter   3:  -462.59381771947028   -3.34537e-02   2.50401e-04 DIIS
   @DF-RHF iter   4:  -462.59712038057671   -3.30266e-03   6.26827e-05 DIIS
   @DF-RHF iter   5:  -462.59727041559978   -1.50035e-04   1.99751e-05 DIIS
   @DF-RHF iter   6:  -462.59728768128844   -1.72657e-05   6.62402e-06 DIIS
   @DF-RHF iter   7:  -462.59728956277741   -1.88149e-06   1.83772e-06 DIIS
   @DF-RHF iter   8:  -462.59728984582682   -2.83049e-07   8.32653e-07 DIIS
   @DF-RHF iter   9:  -462.59728991262847   -6.68016e-08   3.37076e-07 DIIS
   @DF-RHF iter  10:  -462.59728992845470   -1.58262e-08   1.61972e-07 DIIS
   @DF-RHF iter  11:  -462.59728993188412   -3.42942e-09   5.96111e-08 DIIS
   @DF-RHF iter  12:  -462.59728993225229   -3.68175e-10   2.76113e-08 DIIS
   @DF-RHF iter  13:  -462.59728993235660   -1.04308e-10   1.19522e-08 DIIS
   @DF-RHF iter  14:  -462.59728993238065   -2.40448e-11   4.58024e-09 DIIS
   @DF-RHF iter  15:  -462.59728993238218   -1.53477e-12   1.81279e-09 DIIS
   @DF-RHF iter  16:  -462.59728993238230   -1.13687e-13   5.49629e-10 DIIS
   @DF-RHF iter  17:  -462.59728993238315   -8.52651e-13   1.92277e-10 DIIS
   @DF-RHF iter  18:  -462.59728993238298    1.70530e-13   7.49989e-11 DIIS
  Energy and wave function converged.


  ==> Post-Iterations <==

    Orbital Energies [Eh]
    ---------------------

    Doubly Occupied:                                                      

       1A    -11.246144     2A    -11.241126     3A    -11.240869  
       4A    -11.238615     5A    -11.238049     6A    -11.237833  
       7A    -11.235080     8A    -11.229507     9A    -11.229016  
      10A    -11.228557    11A    -11.228053    12A    -11.225697  
      13A     -1.156740    14A     -1.127010    15A     -1.028103  
      16A     -1.012029    17A     -1.002364    18A     -0.942903  
      19A     -0.900041    20A     -0.822632    21A     -0.818115  
      22A     -0.778359    23A     -0.714399    24A     -0.665725  
      25A     -0.641040    26A     -0.637353    27A     -0.617304  
      28A     -0.608426    29A     -0.579685    30A     -0.567533  
      31A     -0.564273    32A     -0.540551    33A     -0.532453  
      34A     -0.505280    35A     -0.496310    36A     -0.487508  
      37A     -0.476944    38A     -0.475816    39A     -0.466005  
      40A     -0.459694    41A     -0.360958    42A     -0.330435  
      43A     -0.289633  

    Virtual:                                                              

      44A      0.115325    45A      0.134988    46A      0.177896  
      47A      0.190759    48A      0.198074    49A      0.202823  
      50A      0.216345    51A      0.229005    52A      0.229789  
      53A      0.254143    54A      0.258339    55A      0.268219  
      56A      0.271872    57A      0.286124    58A      0.292602  
      59A      0.300616    60A      0.318633    61A      0.339173  
      62A      0.365765    63A      0.390907    64A      0.397165  
      65A      0.428755    66A      0.430815    67A      0.436274  
      68A      0.457898    69A      0.483742    70A      0.488011  
      71A      0.522007    72A      0.570172    73A      0.597302  
      74A      0.605741    75A      0.620710    76A      0.637586  
      77A      0.667319    78A      0.669669    79A      0.678714  
      80A      0.693946    81A      0.699498    82A      0.710571  
      83A      0.724069    84A      0.727975    85A      0.735372  
      86A      0.738302    87A      0.747311    88A      0.752035  
      89A      0.767203    90A      0.774482    91A      0.802944  
      92A      0.815047    93A      0.832382    94A      0.839120  
      95A      0.843208    96A      0.855119    97A      0.859378  
      98A      0.871878    99A      0.876120   100A      0.885330  
     101A      0.887892   102A      0.892753   103A      0.896979  
     104A      0.906380   105A      0.916185   106A      0.920579  
     107A      0.928631   108A      0.934087   109A      0.938920  
     110A      0.946146   111A      0.953992   112A      0.963852  
     113A      0.983285   114A      0.987757   115A      1.000880  
     116A      1.017647   117A      1.040720   118A      1.064831  
     119A      1.111672   120A      1.126104   121A      1.140666  
     122A      1.151335   123A      1.156062   124A      1.176668  
     125A      1.196390   126A      1.237916   127A      1.244131  
     128A      1.249160   129A      1.276935   130A      1.293533  
     131A      1.304012   132A      1.310551   133A      1.323394  
     134A      1.352800   135A      1.361995   136A      1.382997  
     137A      1.394951   138A      1.436901   139A      1.479941  
     140A      1.487809   141A      1.504091   142A      1.521005  
     143A      1.558220   144A      1.561911   145A      1.571275  
     146A      1.598004   147A      1.626077   148A      1.650391  
     149A      1.687612   150A      1.705422   151A      1.732696  
     152A      1.739664   153A      1.749675   154A      1.761738  
     155A      1.776145   156A      1.808678   157A      1.810648  
     158A      1.831701   159A      1.845684   160A      1.854428  
     161A      1.868513   162A      1.879515   163A      1.884247  
     164A      1.888536   165A      1.895928   166A      1.912415  
     167A      1.919254   168A      1.928993   169A      1.931674  
     170A      1.940668   171A      1.946272   172A      1.957826  
     173A      1.974641   174A      1.979839   175A      1.983033  
     176A      2.005087   177A      2.028017   178A      2.029891  
     179A      2.035633   180A      2.045392   181A      2.065178  
     182A      2.074303   183A      2.078163   184A      2.091050  
     185A      2.110196   186A      2.117363   187A      2.122913  
     188A      2.139892   189A      2.143488   190A      2.151127  
     191A      2.162616   192A      2.192484   193A      2.203467  
     194A      2.216498   195A      2.240445   196A      2.263041  
     197A      2.272223   198A      2.285487   199A      2.295155  
     200A      2.301863   201A      2.313799   202A      2.348398  
     203A      2.376414   204A      2.408266   205A      2.417347  
     206A      2.433222   207A      2.444917   208A      2.468207  
     209A      2.472781   210A      2.502999   211A      2.527291  
     212A      2.541151   213A      2.560638   214A      2.625009  
     215A      2.664523   216A      2.677961   217A      2.708935  
     218A      2.727358   219A      2.745845   220A      2.762925  
     221A      2.770071   222A      2.773148   223A      2.789916  
     224A      2.806312   225A      2.830844   226A      2.836903  
     227A      2.912150   228A      2.947469   229A      2.955455  
     230A      3.005384   231A      3.015474   232A      3.038219  
     233A      3.059538   234A      3.071155   235A      3.181879  
     236A      3.198654   237A      3.278892   238A      3.914874  

    Final Occupation by Irrep:
              A 
    DOCC [    43 ]

  @DF-RHF Final Energy:  -462.59728993238298

   => Energetics <=

    Nuclear Repulsion Energy =            651.1771066823625915
    One-Electron Energy =               -1916.7004626750754142
    Two-Electron Energy =                 802.9260660603298447
    Total Energy =                       -462.5972899323829779

Computation Completed


Properties will be evaluated at   0.000000,   0.000000,   0.000000 [a0]

Properties computed using the SCF density matrix

  Nuclear Dipole Moment: [e a0]
     X:     7.4756      Y:     0.4876      Z:    -2.0603

  Electronic Dipole Moment: [e a0]
     X:    -7.3468      Y:    -0.5119      Z:     1.9616

  Dipole Moment: [e a0]
     X:     0.1288      Y:    -0.0243      Z:    -0.0986     Total:     0.1640

  Dipole Moment: [D]
     X:     0.3274      Y:    -0.0617      Z:    -0.2507     Total:     0.4169


*** tstop() called on skylm005.palmetto.clemson.edu at Thu Feb 17 23:52:47 2022
Module time:
	user time   =       9.35 seconds =       0.16 minutes
	system time =       0.60 seconds =       0.01 minutes
	total time  =         12 seconds =       0.20 minutes
Total time:
	user time   =       9.35 seconds =       0.16 minutes
	system time =       0.60 seconds =       0.01 minutes
	total time  =         12 seconds =       0.20 minutes
 MINTS: Wrapper to libmints.
   by Justin Turney

   Calculation information:
      Number of threads:                 1
      Number of atoms:                  26
      Number of AO shells:             114
      Number of SO shells:             114
      Number of primitives:            334
      Number of atomic orbitals:       250
      Number of basis functions:       238

      Number of irreps:                  1
      Integral cutoff                 1.00e-12
      Number of functions per irrep: [ 238 ]

 OEINTS: Overlap, kinetic, potential, dipole, and quadrupole integrals
         stored in file 35.

      Computing two-electron integrals...done
      Computed 266153955 non-zero two-electron integrals.
        Stored in file 33.


*** tstart() called on skylm005.palmetto.clemson.edu
*** at Thu Feb 17 23:57:31 2022


	Wfn Parameters:
	--------------------
	Wavefunction         = CCSD
	Number of irreps     = 1
	Number of MOs        = 238
	Number of active MOs = 238
	AO-Basis             = NONE
	Semicanonical        = false
	Reference            = RHF
	Print Level          = 1

	IRREP	# MOs	# FZDC	# DOCC	# SOCC	# VIRT	# FZVR
	-----	-----	------	------	------	------	------
	 A	   238	    0	    43	    0	    195	    0
	Transforming integrals...
	IWL integrals will be deleted.
	(OO|OO)...
	Presorting SO-basis two-electron integrals.
	Sorting File: SO Ints (nn|nn) nbuckets = 1
	Constructing frozen core operators
	Starting first half-transformation.
	Sorting half-transformed integrals.
	First half integral transformation complete.
	Starting second half-transformation.
	Two-electron integral transformation complete.
	(OO|OV)...
	Starting second half-transformation.
	Two-electron integral transformation complete.
	(OO|VV)...
	Starting second half-transformation.
	Two-electron integral transformation complete.
	(OV|OO)...
	Starting first half-transformation.
	Sorting half-transformed integrals.
	First half integral transformation complete.
	Starting second half-transformation.
	Two-electron integral transformation complete.
	(OV|OV)...
	Starting second half-transformation.
	Two-electron integral transformation complete.
	(OV|VV)...
	Starting second half-transformation.
	Two-electron integral transformation complete.
	(VV|OO)...
	Starting first half-transformation.
	Sorting half-transformed integrals.
	First half integral transformation complete.
	Starting second half-transformation.
	Two-electron integral transformation complete.
	(VV|OV)...
	Starting second half-transformation.
	Two-electron integral transformation complete.
	(VV|VV)...
	Starting second half-transformation.
	Two-electron integral transformation complete.
	Frozen core energy     =      0.00000000000000

	Size of irrep 0 of <ab|cd> integrals:   1445.901 (MW) /  11567.205 (MB)
	Total:                                  1445.901 (MW) /  11567.205 (MB)

	Size of irrep 0 of <ia|bc> integrals:    318.840 (MW) /   2550.717 (MB)
	Total:                                   318.840 (MW) /   2550.717 (MB)

	Size of irrep 0 of tijab amplitudes:      70.308 (MW) /    562.466 (MB)
	Total:                                    70.308 (MW) /    562.466 (MB)

	Nuclear Rep. energy          =    651.17710668236259
	SCF energy                   =   -462.59728993238298
	One-electron energy          =  -1916.70046262681763
	Two-electron energy          =    802.92539116655803
	Reference energy             =   -462.59796477789700

*** tstop() called on skylm005.palmetto.clemson.edu at Fri Feb 18 00:07:01 2022
Module time:
	user time   =     139.61 seconds =       2.33 minutes
	system time =      80.24 seconds =       1.34 minutes
	total time  =        570 seconds =       9.50 minutes
Total time:
	user time   =     268.42 seconds =       4.47 minutes
	system time =      89.43 seconds =       1.49 minutes
	total time  =        866 seconds =      14.43 minutes
            **************************
            *                        *
            *        CCENERGY        *
            *                        *
            **************************

    Nuclear Rep. energy (wfn)     =  651.177106682362592
    SCF energy          (wfn)     = -462.597289932382978
    Reference energy    (file100) = -462.597964777897005

    Input parameters:
    -----------------
    Wave function   =     CCSD
    Reference wfn   =     RHF
    Brueckner       =     No
    Memory (Mbytes) =     62000.0
    Maxiter         =     50
    R_Convergence   =     1.0e-07
    E_Convergence   =     1.0e-08
    Restart         =     Yes
    DIIS            =     Yes
    AO Basis        =     NONE
    ABCD            =     NEW
    Cache Level     =     2
    Cache Type      =     LOW
    Print Level     =     1
    Num. of threads =     1
    # Amps to Print =     10
    Print MP2 Amps? =     No
    Analyze T2 Amps =     No
    Print Pair Ener =     No
    Local CC        =     No
    SCS-MP2         =     False
    SCSN-MP2        =     False
    SCS-CCSD        =     False

MP2 correlation energy -1.6452759378560380
                Solving CC Amplitude Equations
                ------------------------------
  Iter             Energy              RMS        T1Diag      D1Diag    New D1Diag    D2Diag
  ----     ---------------------    ---------   ----------  ----------  ----------   --------
     0        -1.645275937856038    0.000e+00    0.000000    0.000000    0.000000    0.179577
     1        -1.675758478845125    1.248e-01    0.006911    0.024464    0.024464    0.173125
     2        -1.721669272578774    4.435e-02    0.007161    0.024932    0.024932    0.187446
     3        -1.731878696983584    1.801e-02    0.008085    0.028822    0.028822    0.192843
     4        -1.732024828644551    5.726e-03    0.008168    0.029293    0.029293    0.195069
     5        -1.732207377039625    2.341e-03    0.008193    0.029540    0.029540    0.196061
     6        -1.732250703890085    7.159e-04    0.008190    0.029559    0.029559    0.196299
     7        -1.732228034303965    2.318e-04    0.008186    0.029561    0.029561    0.196333
     8        -1.732225636307314    7.419e-05    0.008186    0.029563    0.029563    0.196341
     9        -1.732228691418650    2.714e-05    0.008186    0.029565    0.029565    0.196342
    10        -1.732226510517273    1.360e-05    0.008186    0.029566    0.029566    0.196341
    11        -1.732226682762584    4.281e-06    0.008186    0.029566    0.029566    0.196341
    12        -1.732226475226250    2.285e-06    0.008186    0.029567    0.029567    0.196341
    13        -1.732226445996041    7.493e-07    0.008186    0.029567    0.029567    0.196341
    14        -1.732226448310234    3.535e-07    0.008186    0.029567    0.029567    0.196341
    15        -1.732226444306945    1.485e-07    0.008186    0.029567    0.029567    0.196341
    16        -1.732226441279429    5.670e-08    0.008186    0.029567    0.029567    0.196341

    Iterations converged.


    Largest TIA Amplitudes:
             41  44        -0.0180817859
             40  43        -0.0092702699
             42  49         0.0086745430
             34  36         0.0083527165
             42  47         0.0075782824
             42  74        -0.0074670714
             41  34        -0.0071459491
             41  84         0.0068371094
             40  36         0.0066691204
             41  82        -0.0065408902

    Largest TIjAb Amplitudes:
     41  41   1   1        -0.0859203527
     42  42   0   0        -0.0628067592
     40  40   0   0        -0.0445561023
     41  42   0   1         0.0359193295
     42  41   1   0         0.0359193295
     40  42   0   4         0.0326407785
     42  40   4   0         0.0326407785
     40  41   1   0        -0.0279388134
     41  40   0   1        -0.0279388134
     41  41   0   0        -0.0266428104

    SCF energy       (wfn)                    = -462.597289932382978
    Reference energy (file100)                = -462.597964777897005

    Opposite-spin MP2 correlation energy      =   -1.220068306107338
    Same-spin MP2 correlation energy          =   -0.425207631748700
    Singles MP2 correlation energy            =   -0.000000000000000
    MP2 correlation energy                    =   -1.645275937856038
      * MP2 total energy                      = -464.243240715753018

    Opposite-spin CCSD correlation energy     =   -1.349521131146231
    Same-spin CCSD correlation energy         =   -0.382705310133198
    Singles CCSD correlation energy           =    0.000000000000000
    CCSD correlation energy                   =   -1.732226441279429
      * CCSD total energy                     = -464.330191219176413


			**************************
			*                        *
			*         CCHBAR         *
			*                        *
			**************************


			**************************
			*        CCLAMBDA        *
			**************************


	Nuclear Rep. energy (wfn)     =  651.177106682362592
	Reference           (wfn)     =                    0
	SCF energy          (wfn)     = -462.597289932382978
	Reference energy    (CC_INFO) = -462.597964777897005
	CCSD energy         (CC_INFO) =   -1.732226441279429
	Total CCSD energy   (CC_INFO) = -464.330191219176413

	Input parameters:
	-----------------
	Maxiter           =     50
	Convergence       = 1.0e-07
	Restart           =     No
	Cache Level       =     2
	Model III         =     No
	DIIS              =     Yes
	AO Basis          =     No
	ABCD              =     NEW
	Local CC          =     No
	Parameters for left-handed eigenvectors:
	    Irr   Root  Ground-State?    EOM energy        R0
	  1   0     0        Yes       0.0000000000   1.0000000000
	Labels for eigenvector 1:
	LIA 0 -1, Lia 0 -1, LIJAB 0 -1, Lijab 0 -1, LIjAb 0 -1, 2LIjAb - LIjbA 0 -1
	Symmetry of left-hand state: A
	Symmetry of left-hand eigenvector: A

	          Solving Lambda Equations
	          ------------------------
	Iter     PseudoEnergy or Norm         RMS  
	----     ---------------------     --------
	   0        -1.732298725787432    0.000e+00
	   1        -1.679385324868876    3.109e-02
	   2        -1.674884457264596    6.884e-03
	   3        -1.673454719293084    2.197e-03
	   4        -1.673454646444413    7.349e-04
	   5        -1.673476754915397    2.622e-04
	   6        -1.673466661795953    1.054e-04
	   7        -1.673466275833013    3.741e-05
	   8        -1.673466881723996    1.740e-05
	   9        -1.673466757180010    6.727e-06
	  10        -1.673466975875344    2.835e-06
	  11        -1.673466863801684    1.028e-06
	  12        -1.673466863280500    3.886e-07
	  13        -1.673466858186111    1.604e-07
	  14        -1.673466857058172    7.308e-08

	Largest LIA Amplitudes:
	         41  44        -0.0143597176
	         40  43        -0.0075912386
	         42  49         0.0069727806
	         34  36         0.0068498671
	         42  47         0.0059187920
	         42  74        -0.0058673725
	         41  34        -0.0057735856
	         39  23        -0.0055445077
	         41  84         0.0054111308
	         40  36         0.0053362335

	Largest LIjAb Amplitudes:
	 41  41   1   1        -0.0811627407
	 42  42   0   0        -0.0585323281
	 40  40   0   0        -0.0415075573
	 41  42   0   1         0.0340485854
	 42  41   1   0         0.0340485854
	 40  42   0   4         0.0306136639
	 42  40   4   0         0.0306136639
	 40  41   1   0        -0.0265159392
	 41  40   0   1        -0.0265159392
	 40  42   4   0         0.0242412920

	Iterations converged.

	Overlap <L|e^T> =        0.33008597405

			**************************
			*                        *
			*        CCDENSITY       *
			*                        *
			**************************


	Input parameters:
	-----------------
	Wave function    =   CCSD
	Reference wfn    =   RHF
	Dertype          = 1
	Tolerance        = 1.0e-14
	Cache Level      = 2
	AO Basis         = No
	OPDM Only        = No
	Relax OPDM       = Yes
	Compute Xi       = No
	Use Zeta         = No
	Xi connected     = Yes
	Compute NO       = No

	Nuclear Rep. energy (wfn)     =  651.177106682362592
	SCF energy          (wfn)     = -462.597289932382978
	Reference energy    (file100) = -462.597964777897005
	CCSD energy         (CC_INFO) =   -1.732226441279429
	Total CCSD energy   (CC_INFO) = -464.330191219176413
	Number of States = 1

	Ground?  State     EOM Energy       R0
	  Yes     0  A    0.0000000000   1.00000000

	Virial Theorem Data:
	--------------------
	Kinetic energy (ref)   =  461.770274087939583
	Kinetic energy (corr)  =    1.701792025528441
	Kinetic energy (total) =  463.472066113468031
	-V/T (ref)             =    2.001792429561630
	-V/T (corr)            =    2.017883745660130
	-V/T (total)           =    2.001851514187046
    Molecular point group: c1
    Full point group: C1

    Geometry (in Bohr), charge = 0, multiplicity = 1:

       Center              X                  Y                   Z       
    ------------   -----------------  -----------------  -----------------
         C            2.636362397747     2.978777264449     1.287920190463
         C            1.491248836956     0.661143444869     0.031339244435
         C           -1.194290092811    -0.012676199686     0.328965440016
         C           -1.971239650937    -2.554388074044     0.594625028459
         C           -4.533651585274    -3.169686679946     0.888286578629
         C           -6.370159243586    -1.254708144273     0.943553508894
         C           -5.620930077996     1.282780192195     0.722381852897
         C           -3.059534816314     1.896829689127     0.432021654268
         H           -2.494941341811     3.878829251565     0.257187972593
         H           -7.036777141877     2.788999628574     0.780375657961
         H           -8.367503382163    -1.733687576663     1.178180014905
         H           -5.094690484935    -5.149006610738     1.099673232749
         H           -0.541491761677    -4.046931562453     0.630637539232
         C            3.239298415336    -0.514984301094    -1.454743270351
         C            5.761629258552     0.833989134660    -1.292164462600
         C            5.492286593891     2.447828473884     1.112944779328
         H            6.061122503545     1.302900106253     2.759149457903
         H            6.656476939918     4.172868746960     1.091906458373
         H            7.379304741811    -0.481864961019    -1.223478587118
         H            6.028352762804     2.029244688464    -2.992203659036
         C            2.863390315008    -2.677454598239    -3.246332138662
         H            0.851873230490    -3.113782911976    -3.534683558419
         H            3.711268853526    -2.217130542160    -5.096523303849
         H            3.818575061834    -4.403366035059    -2.561994278493
         H            1.967395569883     3.251615922443     3.242509275451
         H            2.130193585865     4.704218159464     0.216180915671

	Presorting MO-basis TPDM.
	Sorting File: MO TPDM (AA|AA) nbuckets = 1
	Starting first half-transformation.
	Sorting half-transformed TPDM.
	First half integral transformation complete.


  -Total gradient:
     Atom            X                  Y                   Z
    ------   -----------------  -----------------  -----------------
       1        0.000198917897    -0.001093254826    -0.001299869533
       2       -0.009594801414     0.003781567080     0.006495621531
       3        0.007699927876     0.001804214276    -0.001417411457
       4       -0.000152063047    -0.001668984512    -0.000416388801
       5        0.000075589966    -0.000580015117    -0.000081283152
       6       -0.000399769977    -0.000193552976     0.000037716662
       7        0.000049352734     0.000641250512     0.000012048032
       8       -0.000860450457     0.001288458647     0.000360843835
       9        0.000089039424    -0.000352420523    -0.000078689531
      10        0.000348117997    -0.000356874566    -0.000009854533
      11        0.000510749056     0.000121660748    -0.000045122044
      12        0.000143664137     0.000473880430    -0.000019628378
      13        0.000170511803     0.000349734169     0.000130508592
      14        0.007208127432    -0.004814703228    -0.005445667457
      15       -0.002191677090     0.000041304220     0.000796826430
      16       -0.000872994699    -0.001136513642    -0.000371544776
      17       -0.000706660944     0.000429190742    -0.001166948572
      18       -0.000674824932    -0.000823108946    -0.000094111943
      19       -0.000843768393     0.000488329043    -0.000144628716
      20       -0.000350673504    -0.000359633167     0.000728707739
      21        0.000156028278     0.001977993648     0.001509996359
      22        0.000423337852     0.000339528168     0.000527311426
      23       -0.000366780501    -0.000170068649     0.001149756012
      24       -0.000482071922     0.001011099476    -0.000368439302
      25        0.000052241052    -0.000333117765    -0.000961573107
      26        0.000370931371    -0.000865963246     0.000171824687


			-----------------------------------------
			 OPTKING 2.0: for geometry optimizations 
			  - R.A. King,  Bethel University        
			-----------------------------------------

	Internal coordinates to be generated automatically.
	Detected frag 1 with atoms:  1 2 3 4 5 6 7 8 9 10 11 12 13 14 15 16 17 18 19 20
	 21 22 23 24 25 26
	---Fragment 1 Bond Connectivity---
	 1 : 2 16 25 26
	 2 : 1 3 14
	 3 : 2 4 8
	 4 : 3 5 13
	 5 : 4 6 12
	 6 : 5 7 11
	 7 : 6 8 10
	 8 : 3 7 9
	 9 : 8
	 10 : 7
	 11 : 6
	 12 : 5
	 13 : 4
	 14 : 2 15 21
	 15 : 14 16 19 20
	 16 : 1 15 17 18
	 17 : 16
	 18 : 16
	 19 : 15
	 20 : 15
	 21 : 14 22 23 24
	 22 : 21
	 23 : 21
	 24 : 21
	 25 : 1
	 26 : 1

	---Fragment 1 Geometry and Gradient---
	 C           2.6363623977        2.9787772644        1.2879201905
	 C           1.4912488370        0.6611434449        0.0313392444
	 C          -1.1942900928       -0.0126761997        0.3289654400
	 C          -1.9712396509       -2.5543880740        0.5946250285
	 C          -4.5336515853       -3.1696866799        0.8882865786
	 C          -6.3701592436       -1.2547081443        0.9435535089
	 C          -5.6209300780        1.2827801922        0.7223818529
	 C          -3.0595348163        1.8968296891        0.4320216543
	 H          -2.4949413418        3.8788292516        0.2571879726
	 H          -7.0367771419        2.7889996286        0.7803756580
	 H          -8.3675033822       -1.7336875767        1.1781800149
	 H          -5.0946904849       -5.1490066107        1.0996732327
	 H          -0.5414917617       -4.0469315625        0.6306375392
	 C           3.2392984153       -0.5149843011       -1.4547432704
	 C           5.7616292586        0.8339891347       -1.2921644626
	 C           5.4922865939        2.4478284739        1.1129447793
	 H           6.0611225035        1.3029001063        2.7591494579
	 H           6.6564769399        4.1728687470        1.0919064584
	 H           7.3793047418       -0.4818649610       -1.2234785871
	 H           6.0283527628        2.0292446885       -2.9922036590
	 C           2.8633903150       -2.6774545982       -3.2463321387
	 H           0.8518732305       -3.1137829120       -3.5346835584
	 H           3.7112688535       -2.2171305422       -5.0965233038
	 H           3.8185750618       -4.4033660351       -2.5619942785
	 H           1.9673955699        3.2516159224        3.2425092755
	 H           2.1301935859        4.7042181595        0.2161809157
	             0.0001989179       -0.0010932548       -0.0012998695
	            -0.0095948014        0.0037815671        0.0064956215
	             0.0076999279        0.0018042143       -0.0014174115
	            -0.0001520630       -0.0016689845       -0.0004163888
	             0.0000755900       -0.0005800151       -0.0000812832
	            -0.0003997700       -0.0001935530        0.0000377167
	             0.0000493527        0.0006412505        0.0000120480
	            -0.0008604505        0.0012884586        0.0003608438
	             0.0000890394       -0.0003524205       -0.0000786895
	             0.0003481180       -0.0003568746       -0.0000098545
	             0.0005107491        0.0001216607       -0.0000451220
	             0.0001436641        0.0004738804       -0.0000196284
	             0.0001705118        0.0003497342        0.0001305086
	             0.0072081274       -0.0048147032       -0.0054456675
	            -0.0021916771        0.0000413042        0.0007968264
	            -0.0008729947       -0.0011365136       -0.0003715448
	            -0.0007066609        0.0004291907       -0.0011669486
	            -0.0006748249       -0.0008231089       -0.0000941119
	            -0.0008437684        0.0004883290       -0.0001446287
	            -0.0003506735       -0.0003596332        0.0007287077
	             0.0001560283        0.0019779936        0.0015099964
	             0.0004233379        0.0003395282        0.0005273114
	            -0.0003667805       -0.0001700686        0.0011497560
	            -0.0004820719        0.0010110995       -0.0003684393
	             0.0000522411       -0.0003331178       -0.0009615731
	             0.0003709314       -0.0008659632        0.0001718247

	Previous optimization step data not found.  Starting new optimization.

	---Fragment 1 Intrafragment Coordinates---
	 - Coordinate -           - BOHR/RAD -       - ANG/DEG -
	 R(1,2)           =         2.874319	       1.521024
	 R(1,16)          =         2.910125	       1.539972
	 R(1,25)          =         2.083837	       1.102719
	 R(1,26)          =         2.093318	       1.107736
	 R(2,3)           =         2.784732	       1.473617
	 R(2,14)          =         2.578254	       1.364353
	 R(3,4)           =         2.671053	       1.413460
	 R(3,8)           =         2.671324	       1.413604
	 R(4,5)           =         2.651563	       1.403147
	 R(4,13)          =         2.067163	       1.093895
	 R(5,6)           =         2.653857	       1.404361
	 R(5,12)          =         2.068129	       1.094407
	 R(6,7)           =         2.655016	       1.404974
	 R(6,11)          =         2.067330	       1.093984
	 R(7,8)           =         2.649927	       1.402281
	 R(7,10)          =         2.068014	       1.094346
	 R(8,9)           =         2.068249	       1.094470
	 R(14,15)         =         2.865016	       1.516101
	 R(14,21)         =         2.833262	       1.499298
	 R(15,16)         =         2.908878	       1.539312
	 R(15,19)         =         2.086400	       1.104075
	 R(15,20)         =         2.095211	       1.108738
	 R(16,17)         =         2.084328	       1.102979
	 R(16,18)         =         2.081237	       1.101343
	 R(21,22)         =         2.078396	       1.099840
	 R(21,23)         =         2.086625	       1.104194
	 R(21,24)         =         2.087934	       1.104887
	 B(1,2,3)         =         2.132448	     122.180296
	 B(1,2,14)        =         1.928043	     110.468727
	 B(1,16,15)       =         1.815021	     103.993068
	 B(1,16,17)       =         1.897117	     108.696781
	 B(1,16,18)       =         1.980503	     113.474479
	 B(2,1,16)        =         1.790127	     102.566700
	 B(2,1,25)        =         1.968972	     112.813790
	 B(2,1,26)        =         1.922464	     110.149081
	 B(2,3,4)         =         2.119286	     121.426120
	 B(2,3,8)         =         2.099640	     120.300495
	 B(2,14,15)       =         1.927736	     110.451137
	 B(2,14,21)       =         2.242975	     128.512983
	 B(3,2,14)        =         2.220651	     127.233923
	 B(3,4,5)         =         2.109388	     120.859024
	 B(3,4,13)        =         2.080147	     119.183628
	 B(3,8,7)         =         2.110063	     120.897728
	 B(3,8,9)         =         2.084192	     119.415378
	 B(4,3,8)         =         2.063785	     118.246186
	 B(4,5,6)         =         2.098568	     120.239106
	 B(4,5,12)        =         2.089281	     119.706964
	 B(5,4,13)        =         2.093145	     119.928351
	 B(5,6,7)         =         2.085899	     119.513219
	 B(5,6,11)        =         2.098751	     120.249570
	 B(6,5,12)        =         2.095250	     120.048967
	 B(6,7,8)         =         2.098279	     120.222516
	 B(6,7,10)        =         2.095045	     120.037222
	 B(7,6,11)        =         2.098475	     120.233738
	 B(7,8,9)         =         2.088843	     119.681864
	 B(8,7,10)        =         2.089860	     119.740132
	 B(14,15,16)      =         1.799406	     103.098356
	 B(14,15,19)      =         1.968736	     112.800279
	 B(14,15,20)      =         1.912013	     109.550255
	 B(14,21,22)      =         1.956670	     112.108928
	 B(14,21,23)      =         1.916015	     109.779573
	 B(14,21,24)      =         1.942233	     111.281772
	 B(15,14,21)      =         2.108376	     120.801049
	 B(15,16,17)      =         1.899693	     108.844371
	 B(15,16,18)      =         1.981979	     113.559042
	 B(16,1,25)       =         1.977226	     113.286730
	 B(16,1,26)       =         1.935744	     110.909973
	 B(16,15,19)      =         1.976291	     113.233108
	 B(16,15,20)      =         1.945680	     111.479279
	 B(17,16,18)      =         1.886638	     108.096378
	 B(19,15,20)      =         1.862719	     106.725958
	 B(22,21,23)      =         1.892897	     108.455036
	 B(22,21,24)      =         1.890932	     108.342411
	 B(23,21,24)      =         1.861979	     106.683530
	 B(25,1,26)       =         1.869917	     107.138345
	 D(1,2,3,4)       =        -2.462500	    -141.090867
	 D(1,2,3,8)       =         0.645400	      36.978697
	 D(1,2,14,15)     =         0.031048	       1.778925
	 D(1,2,14,21)     =        -3.012567	    -172.607364
	 D(1,16,15,14)    =        -0.499803	     -28.636594
	 D(1,16,15,19)    =        -2.632586	    -150.836039
	 D(1,16,15,20)    =         1.549857	      88.800282
	 D(2,1,16,15)     =         0.514363	      29.470838
	 D(2,1,16,17)     =        -1.507311	     -86.362554
	 D(2,1,16,18)     =         2.676299	     153.340666
	 D(2,3,4,5)       =         3.136447	     179.705195
	 D(2,3,4,13)      =         0.029066	       1.665353
	 D(2,3,8,7)       =        -3.138209	    -179.806114
	 D(2,3,8,9)       =         0.017671	       1.012458
	 D(2,14,15,16)    =         0.300808	      17.235016
	 D(2,14,15,19)    =         2.438658	     139.724821
	 D(2,14,15,20)    =        -1.772435	    -101.553028
	 D(2,14,21,22)    =         0.167316	       9.586503
	 D(2,14,21,23)    =         2.272366	     130.196980
	 D(2,14,21,24)    =        -1.953574	    -111.931530
	 D(3,2,1,16)      =         2.856778	     163.681328
	 D(3,2,1,25)      =         0.723627	      41.460773
	 D(3,2,1,26)      =        -1.364858	     -78.200577
	 D(3,2,14,15)     =         3.104559	     177.878117
	 D(3,2,14,21)     =         0.060944	       3.491829
	 D(3,4,5,6)       =        -0.009298	      -0.532741
	 D(3,4,5,12)      =        -3.136753	    -179.722706
	 D(3,8,7,6)       =         0.012040	       0.689867
	 D(3,8,7,10)      =        -3.131840	    -179.441216
	 D(4,3,2,14)      =         0.754466	      43.227732
	 D(4,3,8,7)       =        -0.029252	      -1.676026
	 D(4,3,8,9)       =         3.126627	     179.142545
	 D(4,5,6,7)       =        -0.008597	      -0.492558
	 D(4,5,6,11)      =        -3.138387	    -179.816317
	 D(5,4,3,8)       =         0.027876	       1.597200
	 D(5,6,7,8)       =         0.007241	       0.414863
	 D(5,6,7,10)      =        -3.132057	    -179.453662
	 D(6,5,4,13)      =         3.097830	     177.492594
	 D(6,7,8,9)       =         3.139309	     179.869135
	 D(7,6,5,12)      =         3.118810	     178.694624
	 D(8,3,2,14)      =        -2.420819	    -138.702704
	 D(8,3,4,13)      =        -3.079505	    -176.442642
	 D(8,7,6,11)      =         3.137033	     179.738730
	 D(9,8,7,10)      =        -0.004572	      -0.261949
	 D(10,7,6,11)     =        -0.002265	      -0.129795
	 D(11,6,5,12)     =        -0.010980	      -0.629134
	 D(12,5,4,13)     =        -0.029625	      -1.697371
	 D(14,2,1,16)     =        -0.348852	     -19.987768
	 D(14,2,1,25)     =        -2.482003	    -142.208323
	 D(14,2,1,26)     =         1.712697	      98.130327
	 D(14,15,16,17)   =         1.520059	      87.092954
	 D(14,15,16,18)   =        -2.660781	    -152.451540
	 D(15,14,21,22)   =        -2.867367	    -164.288012
	 D(15,14,21,23)   =        -0.762317	     -43.677535
	 D(15,14,21,24)   =         1.294929	      74.193955
	 D(15,16,1,25)    =         2.641906	     151.370088
	 D(15,16,1,26)    =        -1.537774	     -88.107935
	 D(16,15,14,21)   =        -2.930014	    -167.877438
	 D(17,16,1,25)    =         0.620232	      35.536695
	 D(17,16,1,26)    =         2.723738	     156.058672
	 D(17,16,15,19)   =        -0.612724	     -35.106492
	 D(17,16,15,20)   =        -2.713466	    -155.470171
	 D(18,16,1,25)    =        -1.479343	     -84.760085
	 D(18,16,1,26)    =         0.624163	      35.761892
	 D(18,16,15,19)   =         1.489621	      85.349014
	 D(18,16,15,20)   =        -0.611121	     -35.014665
	 D(19,15,14,21)   =        -0.792164	     -45.387633
	 D(20,15,14,21)   =         1.279929	      73.334518
	 R(4,21)          =         6.175900	       3.268146

	Current energy   :      -464.3301912192

	Generating empirical Hessian (Schlegel '84) for each fragment.
	Taking RFO optimization step.
	Going to follow RFO solution 1.
	Using RFO vector 1.
	Norm of target step-size    0.15336
	Projected energy change by RFO approximation:        -0.0000284376

	Back-transformation to cartesian coordinates...
	Successfully converged to displaced geometry.

	--- Internal Coordinate Step in ANG or DEG, aJ/ANG or AJ/DEG ---
	 ---------------------------------------------------------------------------
	   Coordinate                Previous        Force       Change         New 
	   ----------                --------       ------       ------       ------
	    1 R(1,2)          =      1.521024     0.030261     0.006153     1.527177
	    2 R(1,16)         =      1.539972     0.014056     0.003794     1.543766
	    3 R(1,25)         =      1.102719     0.007929     0.001523     1.104242
	    4 R(1,26)         =      1.107736     0.007343     0.001434     1.109170
	    5 R(2,3)          =      1.473617     0.059917     0.011284     1.484901
	    6 R(2,14)         =      1.364353    -0.045761    -0.005754     1.358599
	    7 R(3,4)          =      1.413460    -0.009147    -0.001251     1.412209
	    8 R(3,8)          =      1.413604    -0.006447    -0.000952     1.412652
	    9 R(4,5)          =      1.403147     0.002655     0.000368     1.403515
	   10 R(4,13)         =      1.093895     0.001089     0.000203     1.094099
	   11 R(5,6)          =      1.404361    -0.001932    -0.000276     1.404084
	   12 R(5,12)         =      1.094407     0.004074     0.000761     1.095168
	   13 R(6,7)          =      1.404974    -0.003267    -0.000459     1.404515
	   14 R(6,11)         =      1.093984     0.004340     0.000810     1.094794
	   15 R(7,8)          =      1.402281     0.003440     0.000497     1.402778
	   16 R(7,10)         =      1.094346     0.004108     0.000768     1.095114
	   17 R(8,9)          =      1.094470     0.002528     0.000473     1.094943
	   18 R(14,15)        =      1.516101     0.031397     0.006307     1.522408
	   19 R(14,21)        =      1.499298     0.032218     0.006529     1.505827
	   20 R(15,16)        =      1.539312     0.014240     0.003746     1.543058
	   21 R(15,19)        =      1.104075     0.007967     0.001537     1.105612
	   22 R(15,20)        =      1.108738     0.006928     0.001357     1.110095
	   23 R(16,17)        =      1.102979     0.011126     0.002139     1.105118
	   24 R(16,18)        =      1.101343     0.008722     0.001668     1.103011
	   25 R(21,22)        =      1.099840     0.004566     0.000869     1.100708
	   26 R(21,23)        =      1.104194     0.009937     0.001918     1.106112
	   27 R(21,24)        =      1.104887     0.009697     0.001876     1.106763
	   28 B(1,2,3)        =    122.180296    -0.000028    -0.205401   121.974895
	   29 B(1,2,14)       =    110.468727     0.000041     0.137197   110.605924
	   30 B(1,16,15)      =    103.993068    -0.000082     0.122458   104.115526
	   31 B(1,16,17)      =    108.696781     0.000015    -0.002705   108.694076
	   32 B(1,16,18)      =    113.474479     0.000041     0.068569   113.543048
	   33 B(2,1,16)       =    102.566700     0.000003     0.356132   102.922833
	   34 B(2,1,25)       =    112.813790     0.000029     0.130586   112.944376
	   35 B(2,1,26)       =    110.149081    -0.000014    -0.070836   110.078244
	   36 B(2,3,4)        =    121.426120    -0.000017     0.053840   121.479960
	   37 B(2,3,8)        =    120.300495     0.000031     0.036446   120.336941
	   38 B(2,14,15)      =    110.451137     0.000064     0.240348   110.691484
	   39 B(2,14,21)      =    128.512983     0.000004     0.126829   128.639812
	   40 B(3,2,14)       =    127.233923    -0.000013     0.108794   127.342717
	   41 B(3,4,5)        =    120.859024     0.000016     0.057481   120.916505
	   42 B(3,4,13)       =    119.183628     0.000019     0.102508   119.286137
	   43 B(3,8,7)        =    120.897728     0.000021     0.082544   120.980272
	   44 B(3,8,9)        =    119.415378     0.000004     0.030779   119.446157
	   45 B(4,3,8)        =    118.246186    -0.000013    -0.085604   118.160583
	   46 B(4,5,6)        =    120.239106     0.000008     0.034211   120.273317
	   47 B(4,5,12)       =    119.706964    -0.000004    -0.014583   119.692380
	   48 B(5,4,13)       =    119.928351    -0.000035    -0.153413   119.774938
	   49 B(5,6,7)        =    119.513219    -0.000029    -0.085993   119.427226
	   50 B(5,6,11)       =    120.249570     0.000015     0.045096   120.294666
	   51 B(6,5,12)       =    120.048967    -0.000005    -0.017737   120.031229
	   52 B(6,7,8)        =    120.222516    -0.000003    -0.000273   120.222243
	   53 B(6,7,10)       =    120.037222     0.000001    -0.001996   120.035227
	   54 B(7,6,11)       =    120.233738     0.000014     0.041653   120.275392
	   55 B(7,8,9)        =    119.681864    -0.000026    -0.111928   119.569936
	   56 B(8,7,10)       =    119.740132     0.000002     0.002173   119.742305
	   57 B(14,15,16)     =    103.098356    -0.000016     0.264332   103.362688
	   58 B(14,15,19)     =    112.800279     0.000029     0.073453   112.873732
	   59 B(14,15,20)     =    109.550255    -0.000008    -0.045064   109.505191
	   60 B(14,21,22)     =    112.108928     0.000049     0.235991   112.344919
	   61 B(14,21,23)     =    109.779573     0.000004    -0.002132   109.777441
	   62 B(14,21,24)     =    111.281772    -0.000004    -0.010418   111.271354
	   63 B(15,14,21)     =    120.801049    -0.000068    -0.304123   120.496926
	   64 B(15,16,17)     =    108.844371     0.000015    -0.026927   108.817444
	   65 B(15,16,18)     =    113.559042     0.000038     0.049166   113.608208
	   66 B(16,1,25)      =    113.286730    -0.000022    -0.190954   113.095776
	   67 B(16,1,26)      =    110.909973     0.000013    -0.015078   110.894896
	   68 B(16,15,19)     =    113.233108    -0.000014    -0.132321   113.100787
	   69 B(16,15,20)     =    111.479279     0.000018    -0.021751   111.457528
	   70 B(17,16,18)     =    108.096378    -0.000027    -0.203606   107.892772
	   71 B(19,15,20)     =    106.725958    -0.000008    -0.129218   106.596740
	   72 B(22,21,23)     =    108.455036    -0.000032    -0.164443   108.290593
	   73 B(22,21,24)     =    108.342411    -0.000017    -0.040493   108.301919
	   74 B(23,21,24)     =    106.683530    -0.000004    -0.036909   106.646620
	   75 B(25,1,26)      =    107.138345    -0.000009    -0.193660   106.944685
	   76 D(1,2,3,4)      =   -141.090867     0.000001     1.340654  -139.750213
	   77 D(1,2,3,8)      =     36.978697     0.000003     1.513125    38.491822
	   78 D(1,2,14,15)    =      1.778925    -0.000001    -0.082041     1.696884
	   79 D(1,2,14,21)    =   -172.607364    -0.000002    -0.878582  -173.485946
	   80 D(1,16,15,14)   =    -28.636594     0.000008     1.762889   -26.873705
	   81 D(1,16,15,19)   =   -150.836039     0.000004     1.572906  -149.263133
	   82 D(1,16,15,20)   =     88.800282     0.000005     1.849331    90.649613
	   83 D(2,1,16,15)    =     29.470838    -0.000008    -1.781784    27.689054
	   84 D(2,1,16,17)    =    -86.362554    -0.000004    -1.810666   -88.173220
	   85 D(2,1,16,18)    =    153.340666    -0.000004    -1.595050   151.745616
	   86 D(2,3,4,5)      =    179.705195     0.000001     0.046689   179.751884
	   87 D(2,3,4,13)     =      1.665353    -0.000000    -0.187156     1.478198
	   88 D(2,3,8,7)      =   -179.806114    -0.000001    -0.101931  -179.908044
	   89 D(2,3,8,9)      =      1.012458    -0.000002    -0.223838     0.788620
	   90 D(2,14,15,16)   =     17.235016     0.000001    -1.024886    16.210130
	   91 D(2,14,15,19)   =    139.724821    -0.000001    -0.973867   138.750954
	   92 D(2,14,15,20)   =   -101.553028    -0.000001    -1.120041  -102.673069
	   93 D(2,14,21,22)   =      9.586503     0.000003     1.004557    10.591060
	   94 D(2,14,21,23)   =    130.196980     0.000002     0.950554   131.147534
	   95 D(2,14,21,24)   =   -111.931530     0.000001     0.897226  -111.034304
	   96 D(3,2,1,16)     =    163.681328    -0.000002     0.433983   164.115310
	   97 D(3,2,1,25)     =     41.460773    -0.000000     0.366711    41.827484
	   98 D(3,2,1,26)     =    -78.200577     0.000000     0.575597   -77.624980
	   99 D(3,2,14,15)    =    177.878117     0.000001     0.658621   178.536739
	  100 D(3,2,14,21)    =      3.491829    -0.000001    -0.137920     3.353910
	  101 D(3,4,5,6)      =     -0.532741     0.000001     0.092473    -0.440268
	  102 D(3,4,5,12)     =   -179.722706    -0.000000    -0.080009  -179.802715
	  103 D(3,8,7,6)      =      0.689867    -0.000000     0.021086     0.710953
	  104 D(3,8,7,10)     =   -179.441216    -0.000000    -0.020414  -179.461630
	  105 D(4,3,2,14)     =     43.227732    -0.000001     0.509459    43.737191
	  106 D(4,3,8,7)      =     -1.676026     0.000001     0.067472    -1.608554
	  107 D(4,3,8,9)      =    179.142545     0.000000    -0.054435   179.088110
	  108 D(4,5,6,7)      =     -0.492558     0.000000    -0.002639    -0.495198
	  109 D(4,5,6,11)     =   -179.816317    -0.000000    -0.081022  -179.897338
	  110 D(5,4,3,8)      =      1.597200    -0.000001    -0.124367     1.472833
	  111 D(5,6,7,8)      =      0.414863    -0.000000    -0.053498     0.361365
	  112 D(5,6,7,10)     =   -179.453662    -0.000000    -0.011881  -179.465543
	  113 D(6,5,4,13)     =    177.492594     0.000002     0.332459   177.825053
	  114 D(6,7,8,9)      =    179.869135     0.000001     0.144302   180.013437
	  115 D(7,6,5,12)     =    178.694624     0.000001     0.170457   178.865081
	  116 D(8,3,2,14)     =   -138.702704     0.000001     0.681930  -138.020774
	  117 D(8,3,4,13)     =   -176.442642    -0.000002    -0.358212  -176.800854
	  118 D(8,7,6,11)     =    179.738730     0.000000     0.024893   179.763623
	  119 D(9,8,7,10)     =     -0.261949     0.000001     0.102802    -0.159147
	  120 D(10,7,6,11)    =     -0.129795     0.000000     0.066510    -0.063286
	  121 D(11,6,5,12)    =     -0.629134     0.000001     0.092075    -0.537059
	  122 D(12,5,4,13)    =     -1.697371     0.000001     0.159976    -1.537394
	  123 D(14,2,1,16)    =    -19.987768    -0.000000     1.141524   -18.846244
	  124 D(14,2,1,25)    =   -142.208323     0.000002     1.074253  -141.134070
	  125 D(14,2,1,26)    =     98.130327     0.000002     1.283138    99.413466
	  126 D(14,15,16,17)  =     87.092954     0.000004     1.809032    88.901986
	  127 D(14,15,16,18)  =   -152.451540     0.000004     1.563374  -150.888167
	  128 D(15,14,21,22)  =   -164.288012     0.000001     0.110158  -164.177854
	  129 D(15,14,21,23)  =    -43.677535    -0.000001     0.056155   -43.621380
	  130 D(15,14,21,24)  =     74.193955    -0.000002     0.002827    74.196782
	  131 D(15,16,1,25)   =    151.370088    -0.000002    -1.495213   149.874875
	  132 D(15,16,1,26)   =    -88.107935    -0.000006    -1.888211   -89.996146
	  133 D(16,15,14,21)  =   -167.877438     0.000003    -0.278251  -168.155689
	  134 D(17,16,1,25)   =     35.536695     0.000002    -1.524094    34.012601
	  135 D(17,16,1,26)   =    156.058672    -0.000002    -1.917092   154.141580
	  136 D(17,16,15,19)  =    -35.106492    -0.000000     1.619049   -33.487443
	  137 D(17,16,15,20)  =   -155.470171     0.000001     1.895475  -153.574696
	  138 D(18,16,1,25)   =    -84.760085     0.000001    -1.308478   -86.068563
	  139 D(18,16,1,26)   =     35.761892    -0.000002    -1.701477    34.060416
	  140 D(18,16,15,19)  =     85.349014    -0.000000     1.373391    86.722405
	  141 D(18,16,15,20)  =    -35.014665     0.000002     1.649816   -33.364848
	  142 D(19,15,14,21)  =    -45.387633     0.000001    -0.227232   -45.614866
	  143 D(20,15,14,21)  =     73.334518     0.000001    -0.373406    72.961112
	  144 R(4,21)         =      3.268146     0.006674     0.018302     3.286448
	 ---------------------------------------------------------------------------
	Successfully symmetrized geometry.

  ==> Convergence Check <==

  Measures of convergence in internal coordinates in au.
  Criteria marked as inactive (o), active & met (*), and active & unmet ( ).
  --------------------------------------------------------------------------------------------- ~
   Step     Total Energy     Delta E     MAX Force     RMS Force      MAX Disp      RMS Disp    ~
  --------------------------------------------------------------------------------------------- ~
    Convergence Criteria    1.00e-06 *    3.00e-04 *             o    1.20e-03 *             o  ~
  --------------------------------------------------------------------------------------------- ~
      1    -464.33019122   -4.64e+02      7.27e-03      1.03e-03 o    3.46e-02      1.28e-02 o  ~
  ---------------------------------------------------------------------------------------------

	Writing optimization data to binary file.
	Structure for next step:
	Cartesian Geometry (in Angstrom)
	    C     1.4020464635   1.5706053250   0.6967966666
	    C     0.7916264991   0.3497547914   0.0118281951
	    C    -0.6414427163  -0.0057743004   0.1694455177
	    C    -1.0561327455  -1.3472198172   0.3207413171
	    C    -2.4135245516  -1.6694585725   0.4740502582
	    C    -3.3845213444  -0.6553534912   0.4885140445
	    C    -2.9846754958   0.6847766034   0.3587551616
	    C    -1.6272942248   1.0052468232   0.2084210089
	    H    -1.3274707411   2.0535763982   0.1083661301
	    H    -3.7328121816   1.4842847590   0.3775201350
	    H    -4.4432735461  -0.9061862740   0.6097607490
	    H    -2.7124817035  -2.7162816239   0.5931256341
	    H    -0.3031218880  -2.1405485230   0.3463581640
	    C     1.7136013941  -0.2709884153  -0.7694728739
	    C     3.0612689567   0.4304260082  -0.6718177320
	    C     2.9187668134   1.3021101364   0.5934446696
	    H     3.2343188606   0.7100402395   1.4716052118
	    H     3.5281401932   2.2211480617   0.5676378948
	    H     3.9103922345  -0.2756571981  -0.6187652948
	    H     3.2219952819   1.0521750184  -1.5773046273
	    C     1.5181784767  -1.4217277105  -1.7208533218
	    H     0.4544840528  -1.6469071849  -1.8923396364
	    H     1.9843841675  -1.1848340594  -2.6955418569
	    H     2.0119502681  -2.3393417697  -1.3478957460
	    H     1.0547874729   1.6990390829   1.7371169251
	    H     1.1253443737   2.4935438353   0.1473627768
			--------------------------
			 OPTKING Finished Execution 
			--------------------------

    Structure for next step:
    Molecular point group: c1
    Full point group: C1

    Geometry (in Angstrom), charge = 0, multiplicity = 1:

    C            1.404297697138     1.569487349734     0.698515492485
    C            0.793877730310     0.348636811343     0.013547018260
    C           -0.639191490687    -0.006892281831     0.171164341472
    C           -1.053881521578    -1.348337803939     0.322460141477
    C           -2.411273332971    -1.670576560466     0.475769083148
    C           -3.382270129607    -0.656471475187     0.490232869497
    C           -2.982424279412     0.683658624656     0.360473986063
    C           -1.625043003074     1.004128845712     0.210139832858
    H           -1.325219518175     2.052458424801     0.110084953619
    H           -3.730560968130     1.483166783375     0.379238959591
    H           -4.441022335470    -0.907304258982     0.611479574461
    H           -2.710230486089    -2.717399615987     0.594844459490
    H           -0.300870661060    -2.141666512852     0.348076988426
    C            1.715852628947    -0.272106397814    -0.767754053848
    C            3.063520196847     0.429308028436    -0.670098911570
    C            2.921018052951     1.300992160044     0.595163495025
    H            3.236570101440     0.708922260838     1.473324040663
    H            3.530391435214     2.220030088994     0.569356720104
    H            3.912643477957    -0.276775180666    -0.617046474115
    H            3.224246522628     1.051057041141    -1.575585810426
    C            1.520429710761    -1.422845697508    -1.719134505478
    H            0.456735282670    -1.648025172836    -1.890620820737
    H            1.986635403436    -1.185952045541    -2.693823044422
    H            2.014201504071    -2.340459760323    -1.346176928177
    H            1.057038705121     1.697921108097     1.738835755073
    H            1.127595606210     2.492425863672     0.149081600490


Scratch directory: /scratch1/maxbuskirk/
gradient() will perform analytic gradient computation.

*** tstart() called on skylm005.palmetto.clemson.edu
*** at Fri Feb 18 04:13:44 2022

   => Loading Basis Set <=

    Name: CC-PVDZ
    Role: ORBITAL
    Keyword: BASIS
    atoms 1-8, 14-16, 21     entry C          line   138 file /home/maxbuskirk/.conda/envs/psifour/share/psi4/basis/cc-pvdz.gbs 
    atoms 9-13, 17-20, 22-26 entry H          line    22 file /home/maxbuskirk/.conda/envs/psifour/share/psi4/basis/cc-pvdz.gbs 


         ---------------------------------------------------------
                                   SCF
               by Justin Turney, Rob Parrish, Andy Simmonett
                          and Daniel G. A. Smith
                              RHF Reference
                        1 Threads,  59127 MiB Core
         ---------------------------------------------------------

  ==> Geometry <==

    Molecular point group: c1
    Full point group: C1

    Geometry (in Angstrom), charge = 0, multiplicity = 1:

       Center              X                  Y                   Z               Mass       
    ------------   -----------------  -----------------  -----------------  -----------------
         C            1.404297697138     1.569487349734     0.698515492485    12.000000000000
         C            0.793877730310     0.348636811343     0.013547018260    12.000000000000
         C           -0.639191490687    -0.006892281831     0.171164341472    12.000000000000
         C           -1.053881521578    -1.348337803939     0.322460141477    12.000000000000
         C           -2.411273332971    -1.670576560466     0.475769083148    12.000000000000
         C           -3.382270129607    -0.656471475187     0.490232869497    12.000000000000
         C           -2.982424279412     0.683658624656     0.360473986063    12.000000000000
         C           -1.625043003074     1.004128845712     0.210139832858    12.000000000000
         H           -1.325219518175     2.052458424801     0.110084953619     1.007825032230
         H           -3.730560968130     1.483166783375     0.379238959591     1.007825032230
         H           -4.441022335470    -0.907304258982     0.611479574461     1.007825032230
         H           -2.710230486089    -2.717399615987     0.594844459490     1.007825032230
         H           -0.300870661060    -2.141666512852     0.348076988426     1.007825032230
         C            1.715852628947    -0.272106397814    -0.767754053848    12.000000000000
         C            3.063520196847     0.429308028436    -0.670098911570    12.000000000000
         C            2.921018052951     1.300992160044     0.595163495025    12.000000000000
         H            3.236570101440     0.708922260838     1.473324040663     1.007825032230
         H            3.530391435214     2.220030088994     0.569356720104     1.007825032230
         H            3.912643477957    -0.276775180666    -0.617046474115     1.007825032230
         H            3.224246522628     1.051057041141    -1.575585810426     1.007825032230
         C            1.520429710761    -1.422845697508    -1.719134505478    12.000000000000
         H            0.456735282670    -1.648025172836    -1.890620820737     1.007825032230
         H            1.986635403436    -1.185952045541    -2.693823044422     1.007825032230
         H            2.014201504071    -2.340459760323    -1.346176928177     1.007825032230
         H            1.057038705121     1.697921108097     1.738835755073     1.007825032230
         H            1.127595606210     2.492425863672     0.149081600490     1.007825032230

  Running in c1 symmetry.

  Rotational constants: A =      0.06641  B =      0.01972  C =      0.01643 [cm^-1]
  Rotational constants: A =   1990.91711  B =    591.32573  C =    492.60967 [MHz]
  Nuclear repulsion =  649.777599902154748

  Charge       = 0
  Multiplicity = 1
  Electrons    = 86
  Nalpha       = 43
  Nbeta        = 43

  ==> Algorithm <==

  SCF Algorithm Type is DF.
  DIIS enabled.
  MOM disabled.
  Fractional occupation disabled.
  Guess Type is READ.
  Energy threshold   = 1.00e-10
  Density threshold  = 1.00e-10
  Integral threshold = 1.00e-12

  ==> Primary Basis <==

  Basis Set: CC-PVDZ
    Blend: CC-PVDZ
    Number of shells: 114
    Number of basis functions: 238
    Number of Cartesian functions: 250
    Spherical Harmonics?: true
    Max angular momentum: 2

   => Loading Basis Set <=

    Name: (CC-PVDZ AUX)
    Role: JKFIT
    Keyword: DF_BASIS_SCF
    atoms 1-8, 14-16, 21     entry C          line   121 file /home/maxbuskirk/.conda/envs/psifour/share/psi4/basis/cc-pvdz-jkfit.gbs 
    atoms 9-13, 17-20, 22-26 entry H          line    51 file /home/maxbuskirk/.conda/envs/psifour/share/psi4/basis/cc-pvdz-jkfit.gbs 

   => Loading Basis Set <=

    Name: CC-PVDZ
    Role: ORBITAL
    Keyword: BASIS
    atoms 1-8, 14-16, 21     entry C          line   138 file /home/maxbuskirk/.conda/envs/psifour/share/psi4/basis/cc-pvdz.gbs 
    atoms 9-13, 17-20, 22-26 entry H          line    22 file /home/maxbuskirk/.conda/envs/psifour/share/psi4/basis/cc-pvdz.gbs 

  Reading orbitals from file /scratch1/maxbuskirk/pH.mol.3276218.180.npy, no projection.

  ==> Integral Setup <==

  DFHelper Memory: AOs need 0.463 GiB; user supplied 43.306 GiB. Using in-core AOs.

  ==> MemDFJK: Density-Fitted J/K Matrices <==

    J tasked:                   Yes
    K tasked:                   Yes
    wK tasked:                   No
    OpenMP threads:               1
    Memory [MiB]:             44345
    Algorithm:                 Core
    Schwarz Cutoff:           1E-12
    Mask sparsity (%):       9.5014
    Fitting Condition:        1E-10

   => Auxiliary Basis Set <=

  Basis Set: (CC-PVDZ AUX)
    Blend: CC-PVDZ-JKFIT
    Number of shells: 414
    Number of basis functions: 1162
    Number of Cartesian functions: 1322
    Spherical Harmonics?: true
    Max angular momentum: 3

  Minimum eigenvalue in the overlap matrix is 3.2915401386E-04.
  Reciprocal condition number of the overlap matrix is 5.1249574725E-05.
    Using symmetric orthogonalization.

  ==> Pre-Iterations <==

  SCF Guess: Orbitals guess was supplied from a previous computation.

   -------------------------------------------------------
    Irrep   Nso     Nmo     Nalpha   Nbeta   Ndocc  Nsocc
   -------------------------------------------------------
     A        238     238      43      43      43       0
   -------------------------------------------------------
    Total     238     238      43      43      43       0
   -------------------------------------------------------

  ==> Iterations <==

                           Total Energy        Delta E     RMS |[F,P]|

   @DF-RHF iter   0:  -462.58075142524797   -4.62581e+02   2.39205e-04 
   @DF-RHF iter   1:  -462.59751456050202   -1.67631e-02   3.41727e-05 DIIS
   @DF-RHF iter   2:  -462.59758181811048   -6.72576e-05   1.24267e-05 DIIS
   @DF-RHF iter   3:  -462.59759158503766   -9.76693e-06   5.38215e-06 DIIS
   @DF-RHF iter   4:  -462.59759318377382   -1.59874e-06   1.51170e-06 DIIS
   @DF-RHF iter   5:  -462.59759331010889   -1.26335e-07   6.93866e-07 DIIS
   @DF-RHF iter   6:  -462.59759334177164   -3.16628e-08   1.98032e-07 DIIS
   @DF-RHF iter   7:  -462.59759334555946   -3.78782e-09   7.45830e-08 DIIS
   @DF-RHF iter   8:  -462.59759334616803   -6.08566e-10   3.77208e-08 DIIS
   @DF-RHF iter   9:  -462.59759334633992   -1.71894e-10   1.58852e-08 DIIS
   @DF-RHF iter  10:  -462.59759334638750   -4.75779e-11   5.94927e-09 DIIS
   @DF-RHF iter  11:  -462.59759334639114   -3.63798e-12   2.20612e-09 DIIS
   @DF-RHF iter  12:  -462.59759334639205   -9.09495e-13   7.24377e-10 DIIS
   @DF-RHF iter  13:  -462.59759334639244   -3.97904e-13   3.29608e-10 DIIS
   @DF-RHF iter  14:  -462.59759334639369   -1.25056e-12   1.19144e-10 DIIS
   @DF-RHF iter  15:  -462.59759334639261    1.08002e-12   4.14181e-11 DIIS
  Energy and wave function converged.


  ==> Post-Iterations <==

    Orbital Energies [Eh]
    ---------------------

    Doubly Occupied:                                                      

       1A    -11.247076     2A    -11.241294     3A    -11.241015  
       4A    -11.238896     5A    -11.238300     6A    -11.238059  
       7A    -11.235487     8A    -11.230530     9A    -11.230144  
      10A    -11.229606    11A    -11.229186    12A    -11.226708  
      13A     -1.155344    14A     -1.125907    15A     -1.026973  
      16A     -1.010780    17A     -1.001452    18A     -0.942513  
      19A     -0.899788    20A     -0.822081    21A     -0.817716  
      22A     -0.778321    23A     -0.713539    24A     -0.665207  
      25A     -0.639645    26A     -0.635418    27A     -0.617175  
      28A     -0.608202    29A     -0.579215    30A     -0.567147  
      31A     -0.563391    32A     -0.539653    33A     -0.532562  
      34A     -0.504849    35A     -0.496098    36A     -0.487237  
      37A     -0.475842    38A     -0.474970    39A     -0.466217  
      40A     -0.458637    41A     -0.360493    42A     -0.330375  
      43A     -0.292118  

    Virtual:                                                              

      44A      0.116685    45A      0.134934    46A      0.177517  
      47A      0.190406    48A      0.198128    49A      0.202097  
      50A      0.216030    51A      0.228748    52A      0.229468  
      53A      0.253805    54A      0.258075    55A      0.267911  
      56A      0.270926    57A      0.285800    58A      0.292485  
      59A      0.302292    60A      0.319229    61A      0.337829  
      62A      0.364232    63A      0.388759    64A      0.395571  
      65A      0.427850    66A      0.431392    67A      0.435350  
      68A      0.457940    69A      0.483766    70A      0.488632  
      71A      0.520269    72A      0.571440    73A      0.596209  
      74A      0.605754    75A      0.619504    76A      0.637780  
      77A      0.666758    78A      0.669535    79A      0.678403  
      80A      0.692777    81A      0.698331    82A      0.709910  
      83A      0.723526    84A      0.728115    85A      0.735207  
      86A      0.737818    87A      0.745902    88A      0.751399  
      89A      0.766208    90A      0.774764    91A      0.800915  
      92A      0.813911    93A      0.830388    94A      0.837608  
      95A      0.842177    96A      0.853747    97A      0.859254  
      98A      0.870866    99A      0.876363   100A      0.883239  
     101A      0.886139   102A      0.891444   103A      0.895878  
     104A      0.904391   105A      0.914942   106A      0.919122  
     107A      0.925371   108A      0.932738   109A      0.938563  
     110A      0.944951   111A      0.953268   112A      0.963134  
     113A      0.982453   114A      0.986329   115A      0.999938  
     116A      1.013891   117A      1.036883   118A      1.062306  
     119A      1.110713   120A      1.125355   121A      1.139748  
     122A      1.150321   123A      1.154674   124A      1.175294  
     125A      1.194623   126A      1.238198   127A      1.244129  
     128A      1.248604   129A      1.275883   130A      1.292428  
     131A      1.302866   132A      1.308562   133A      1.322793  
     134A      1.350250   135A      1.360656   136A      1.383144  
     137A      1.394785   138A      1.438912   139A      1.478611  
     140A      1.484928   141A      1.501415   142A      1.518493  
     143A      1.555383   144A      1.559012   145A      1.568583  
     146A      1.596313   147A      1.624153   148A      1.651931  
     149A      1.685400   150A      1.704491   151A      1.732525  
     152A      1.738418   153A      1.749378   154A      1.758867  
     155A      1.775697   156A      1.804057   157A      1.806191  
     158A      1.829148   159A      1.841452   160A      1.852777  
     161A      1.869103   162A      1.879357   163A      1.882745  
     164A      1.888480   165A      1.892947   166A      1.909501  
     167A      1.917113   168A      1.925299   169A      1.928724  
     170A      1.937984   171A      1.944677   172A      1.954730  
     173A      1.972305   174A      1.976753   175A      1.980670  
     176A      2.003034   177A      2.019889   178A      2.027780  
     179A      2.034798   180A      2.047537   181A      2.062507  
     182A      2.074161   183A      2.079600   184A      2.090905  
     185A      2.106972   186A      2.117442   187A      2.120472  
     188A      2.138540   189A      2.142108   190A      2.150898  
     191A      2.162744   192A      2.189977   193A      2.199746  
     194A      2.214790   195A      2.238935   196A      2.261853  
     197A      2.270931   198A      2.281066   199A      2.292562  
     200A      2.298432   201A      2.308824   202A      2.343762  
     203A      2.371528   204A      2.405280   205A      2.413691  
     206A      2.429520   207A      2.440099   208A      2.463798  
     209A      2.468452   210A      2.500495   211A      2.521950  
     212A      2.538908   213A      2.558373   214A      2.621236  
     215A      2.662930   216A      2.674722   217A      2.706662  
     218A      2.723825   219A      2.742062   220A      2.758092  
     221A      2.768618   222A      2.769941   223A      2.789547  
     224A      2.799089   225A      2.825962   226A      2.832840  
     227A      2.905084   228A      2.942416   229A      2.950757  
     230A      3.000381   231A      3.014819   232A      3.034628  
     233A      3.054290   234A      3.064769   235A      3.177472  
     236A      3.194823   237A      3.272381   238A      3.911366  

    Final Occupation by Irrep:
              A 
    DOCC [    43 ]

  @DF-RHF Final Energy:  -462.59759334639261

   => Energetics <=

    Nuclear Repulsion Energy =            649.7775999021547477
    One-Electron Energy =               -1913.9200511249900956
    Two-Electron Energy =                 801.5448578764428476
    Total Energy =                       -462.5975933463926140

Computation Completed


Properties will be evaluated at   0.000000,   0.000000,   0.000000 [a0]

Properties computed using the SCF density matrix

  Nuclear Dipole Moment: [e a0]
     X:     7.5355      Y:     0.4579      Z:    -2.0146

  Electronic Dipole Moment: [e a0]
     X:    -7.4115      Y:    -0.4845      Z:     1.9227

  Dipole Moment: [e a0]
     X:     0.1240      Y:    -0.0266      Z:    -0.0919     Total:     0.1566

  Dipole Moment: [D]
     X:     0.3153      Y:    -0.0677      Z:    -0.2335     Total:     0.3981


*** tstop() called on skylm005.palmetto.clemson.edu at Fri Feb 18 04:13:57 2022
Module time:
	user time   =       8.53 seconds =       0.14 minutes
	system time =       0.50 seconds =       0.01 minutes
	total time  =         13 seconds =       0.22 minutes
Total time:
	user time   =    6257.92 seconds =     104.30 minutes
	system time =    1939.67 seconds =      32.33 minutes
	total time  =      15682 seconds =     261.37 minutes
 MINTS: Wrapper to libmints.
   by Justin Turney

   Calculation information:
      Number of threads:                 1
      Number of atoms:                  26
      Number of AO shells:             114
      Number of SO shells:             114
      Number of primitives:            334
      Number of atomic orbitals:       250
      Number of basis functions:       238

      Number of irreps:                  1
      Integral cutoff                 1.00e-12
      Number of functions per irrep: [ 238 ]

 OEINTS: Overlap, kinetic, potential, dipole, and quadrupole integrals
         stored in file 35.

      Computing two-electron integrals...done
      Computed 264932954 non-zero two-electron integrals.
        Stored in file 33.


*** tstart() called on skylm005.palmetto.clemson.edu
*** at Fri Feb 18 04:18:16 2022


	Wfn Parameters:
	--------------------
	Wavefunction         = CCSD
	Number of irreps     = 1
	Number of MOs        = 238
	Number of active MOs = 238
	AO-Basis             = NONE
	Semicanonical        = false
	Reference            = RHF
	Print Level          = 1

	IRREP	# MOs	# FZDC	# DOCC	# SOCC	# VIRT	# FZVR
	-----	-----	------	------	------	------	------
	 A	   238	    0	    43	    0	    195	    0
	Transforming integrals...
	IWL integrals will be deleted.
	(OO|OO)...
	Presorting SO-basis two-electron integrals.
	Sorting File: SO Ints (nn|nn) nbuckets = 1
	Constructing frozen core operators
[...]
	   60 B(14,21,22)     =    112.262654     0.000000     0.001160   112.263815
	   61 B(14,21,23)     =    109.824709     0.000000    -0.000723   109.823986
	   62 B(14,21,24)     =    111.075914    -0.000001    -0.003625   111.072289
	   63 B(15,14,21)     =    120.280519     0.000000     0.001485   120.282004
	   64 B(15,16,17)     =    109.004521    -0.000000    -0.007419   108.997102
	   65 B(15,16,18)     =    113.382798     0.000000     0.006902   113.389701
	   66 B(16,1,25)      =    113.012891    -0.000000     0.001906   113.014797
	   67 B(16,1,26)      =    111.168709    -0.000000    -0.004261   111.164448
	   68 B(16,15,19)     =    112.970048     0.000000     0.002142   112.972190
	   69 B(16,15,20)     =    111.725986    -0.000001    -0.008597   111.717389
	   70 B(17,16,18)     =    107.773584     0.000000     0.002433   107.776017
	   71 B(19,15,20)     =    106.639210     0.000000     0.003602   106.642812
	   72 B(22,21,23)     =    108.352531    -0.000000    -0.001686   108.350845
	   73 B(22,21,24)     =    108.368917     0.000001     0.004949   108.373866
	   74 B(23,21,24)     =    106.764395     0.000000    -0.000050   106.764345
	   75 B(25,1,26)      =    106.931274     0.000000     0.003655   106.934929
	   76 D(1,2,3,4)      =   -137.708022    -0.000000     0.000099  -137.707923
	   77 D(1,2,3,8)      =     40.456692    -0.000000     0.003027    40.459719
	   78 D(1,2,14,15)    =      1.489168     0.000000     0.020527     1.509695
	   79 D(1,2,14,21)    =   -173.855419     0.000000     0.039738  -173.815680
	   80 D(1,16,15,14)   =    -26.184188     0.000000    -0.009992   -26.194180
	   81 D(1,16,15,19)   =   -148.171804     0.000000    -0.017910  -148.189715
	   82 D(1,16,15,20)   =     91.584309     0.000000    -0.017883    91.566426
	   83 D(2,1,16,15)    =     26.876779    -0.000000     0.020642    26.897421
	   84 D(2,1,16,17)    =    -89.405236     0.000000     0.033736   -89.371499
	   85 D(2,1,16,18)    =    150.682213     0.000000     0.030948   150.713160
	   86 D(2,3,4,5)      =    179.533352    -0.000000    -0.003260   179.530092
	   87 D(2,3,4,13)     =      0.963504     0.000000    -0.000035     0.963469
	   88 D(2,3,8,7)      =   -179.662226     0.000000     0.003054  -179.659172
	   89 D(2,3,8,9)      =      0.992079     0.000000     0.002428     0.994507
	   90 D(2,14,15,16)   =     15.886801    -0.000000    -0.006286    15.880514
	   91 D(2,14,15,19)   =    138.104933    -0.000000    -0.000695   138.104238
	   92 D(2,14,15,20)   =   -103.341094     0.000000     0.005230  -103.335864
	   93 D(2,14,21,22)   =      8.957018    -0.000000    -0.026078     8.930940
	   94 D(2,14,21,23)   =    129.570186    -0.000000    -0.027945   129.542240
	   95 D(2,14,21,24)   =   -112.556118    -0.000000    -0.030677  -112.586795
	   96 D(3,2,1,16)     =    164.822955     0.000000     0.006662   164.829618
	   97 D(3,2,1,25)     =     42.809067     0.000000     0.004443    42.813510
	   98 D(3,2,1,26)     =    -76.559080     0.000000    -0.000645   -76.559725
	   99 D(3,2,14,15)    =    178.256682    -0.000000    -0.014379   178.242302
	  100 D(3,2,14,21)    =      2.912095     0.000000     0.004832     2.916927
	  101 D(3,4,5,6)      =     -0.430482     0.000000     0.002332    -0.428149
	  102 D(3,4,5,12)     =   -179.805860     0.000000     0.005555  -179.800305
	  103 D(3,8,7,6)      =      0.646914    -0.000000    -0.001865     0.645049
	  104 D(3,8,7,10)     =   -179.468571    -0.000000    -0.000774  -179.469344
	  105 D(4,3,2,14)     =     45.841280     0.000000     0.038498    45.879778
	  106 D(4,3,8,7)      =     -1.441461     0.000000     0.005771    -1.435691
	  107 D(4,3,8,9)      =    179.212844     0.000000     0.005144   179.217988
	  108 D(4,5,6,7)      =     -0.396130     0.000000     0.001808    -0.394322
	  109 D(4,5,6,11)     =   -179.868286     0.000000     0.000811  -179.867475
	  110 D(5,4,3,8)      =      1.333071    -0.000000    -0.006017     1.327054
	  111 D(5,6,7,8)      =      0.289001    -0.000000    -0.002038     0.286963
	  112 D(5,6,7,10)     =   -179.595129    -0.000000    -0.003132  -179.598262
	  113 D(6,5,4,13)     =    178.132501    -0.000000    -0.000825   178.131676
	  114 D(6,7,8,9)      =    179.992382    -0.000000    -0.001242   179.991140
	  115 D(7,6,5,12)     =    178.976892    -0.000000    -0.001425   178.975467
	  116 D(8,3,2,14)     =   -135.994005     0.000000     0.041426  -135.952579
	  117 D(8,3,4,13)     =   -177.236776    -0.000000    -0.002793  -177.239569
	  118 D(8,7,6,11)     =    179.761251     0.000000    -0.001048   179.760203
	  119 D(9,8,7,10)     =     -0.123102     0.000000    -0.000151    -0.123253
	  120 D(10,7,6,11)    =     -0.122880    -0.000000    -0.002142    -0.125022
	  121 D(11,6,5,12)    =     -0.495264    -0.000000    -0.002422    -0.497686
	  122 D(12,5,4,13)    =     -1.242877     0.000000     0.002398    -1.240479
	  123 D(14,2,1,16)    =    -18.191686    -0.000000    -0.025921   -18.217607
	  124 D(14,2,1,25)    =   -140.205574    -0.000000    -0.028141  -140.233715
	  125 D(14,2,1,26)    =    100.426278    -0.000000    -0.033228   100.393050
	  126 D(14,15,16,17)  =     90.012023    -0.000000    -0.022459    89.989564
	  127 D(14,15,16,18)  =   -149.944260     0.000000    -0.020088  -149.964348
	  128 D(15,14,21,22)  =   -166.002015     0.000000    -0.005117  -166.007132
	  129 D(15,14,21,23)  =    -45.388847     0.000000    -0.006985   -45.395831
	  130 D(15,14,21,24)  =     72.484849     0.000000    -0.009716    72.475133
	  131 D(15,16,1,25)   =    148.667743    -0.000000     0.023526   148.691269
	  132 D(15,16,1,26)   =    -91.081884    -0.000000     0.026511   -91.055373
	  133 D(16,15,14,21)  =   -168.315264    -0.000000    -0.023721  -168.338985
	  134 D(17,16,1,25)   =     32.385728     0.000000     0.036621    32.422349
	  135 D(17,16,1,26)   =    152.636101     0.000000     0.039605   152.675707
	  136 D(17,16,15,19)  =    -31.975593    -0.000000    -0.030378   -32.005971
	  137 D(17,16,15,20)  =   -152.219480    -0.000000    -0.030351  -152.249831
	  138 D(18,16,1,25)   =    -87.526823     0.000000     0.033832   -87.492992
	  139 D(18,16,1,26)   =     32.723550     0.000000     0.036817    32.760367
	  140 D(18,16,15,19)  =     88.068124    -0.000000    -0.028006    88.040117
	  141 D(18,16,15,20)  =    -32.175763    -0.000000    -0.027979   -32.203742
	  142 D(19,15,14,21)  =    -46.097132    -0.000000    -0.018129   -46.115261
	  143 D(20,15,14,21)  =     72.456841     0.000000    -0.012204    72.444637
	  144 R(4,21)         =      3.312643     0.000059     0.000383     3.313026
	 ---------------------------------------------------------------------------
	Successfully symmetrized geometry.

  ==> Convergence Check <==

  Measures of convergence in internal coordinates in au.
  Criteria marked as inactive (o), active & met (*), and active & unmet ( ).
  ---------------------------------------------------------------------------------------------
   Step     Total Energy     Delta E     MAX Force     RMS Force      MAX Disp      RMS Disp   
  ---------------------------------------------------------------------------------------------
    Convergence Criteria    1.00e-06 *    3.00e-04 *             o    1.20e-03 *             o
  ---------------------------------------------------------------------------------------------
      7    -464.33053475   -2.83e-07 *    2.59e-05 *    6.64e-06 o    7.24e-04 *    2.46e-04 o  ~
  ---------------------------------------------------------------------------------------------


  **** Optimization is complete! (in 7 steps) ****

  ==> Optimization Summary <==

  Measures of convergence in internal coordinates in au.
  --------------------------------------------------------------------------------------------------------------- ~
   Step         Total Energy             Delta E       MAX Force       RMS Force        MAX Disp        RMS Disp  ~
  --------------------------------------------------------------------------------------------------------------- ~
      1    -464.330191219176   -464.330191219176      0.00727257      0.00103287      0.03458579      0.01277785  ~
      2    -464.330491447792     -0.000300228616      0.00102802      0.00021651      0.02179214      0.00574868  ~
      3    -464.330524495963     -0.000033048170      0.00025197      0.00006731      0.01238120      0.00394638  ~
      4    -464.330531360231     -0.000006864268      0.00013863      0.00003004      0.00970268      0.00248497  ~
      5    -464.330533451534     -0.000002091303      0.00006495      0.00001910      0.00795611      0.00191619  ~
      6    -464.330534468251     -0.000001016718      0.00004918      0.00001188      0.00479398      0.00111276  ~
      7    -464.330534750800     -0.000000282549      0.00002588      0.00000664      0.00072375      0.00024582  ~
  --------------------------------------------------------------------------------------------------------------- ~

	Writing optimization data to binary file.
	Final energy is   -464.3305347508003
	Final (previous) structure:
	Cartesian Geometry (in Angstrom)
	    C     1.4050035264   1.5567916474   0.7100716180
	    C     0.7966784203   0.3410567465   0.0158915703
	    C    -0.6408501887  -0.0059214917   0.1681348315
	    C    -1.0589902302  -1.3407714224   0.3559246443
	    C    -2.4186947138  -1.6549082467   0.5082005353
	    C    -3.3864724350  -0.6379651704   0.4845669138
	    C    -2.9820045745   0.6966574984   0.3157209466
	    C    -1.6225830281   1.0089410585   0.1659459072
	    H    -1.3193213732   2.0528800280   0.0348903839
	    H    -3.7279113180   1.4982941224   0.3024485604
	    H    -4.4467842442  -0.8820622225   0.6054144129
	    H    -2.7213683618  -2.6969396357   0.6560177067
	    H    -0.3082101827  -2.1354821327   0.4061160165
	    C     1.7171640129  -0.2801279923  -0.7639867398
	    C     3.0671448182   0.4157551717  -0.6647404772
	    C     2.9230989161   1.2932457681   0.5979041200
	    H     3.2512634284   0.7127330148   1.4788413102
	    H     3.5247808619   2.2167461156   0.5600951145
	    H     3.9095904255  -0.2973756299  -0.6007571177
	    H     3.2381449972   1.0287907992  -1.5736296416
	    C     1.5242927059  -1.4309060477  -1.7158211402
	    H     0.4611649982  -1.6743017142  -1.8659676826
	    H     1.9669268857  -1.1830591600  -2.6985182022
	    H     2.0419276899  -2.3388362312  -1.3524875125
	    H     1.0619531024   1.6671054310   1.7539179814
	    H     1.1193926991   2.4857822626   0.1764329579
	Saving final (previous) structure.
	Cleaning optimization helper files.
			--------------------------
			 OPTKING Finished Execution 
			--------------------------

    Final optimized geometry and variables:
    Molecular point group: c1
    Full point group: C1

    Geometry (in Angstrom), charge = 0, multiplicity = 1:

    C            1.405003531971     1.556791653546     0.710071620753
    C            0.796678423476     0.341056747819     0.015891570412
    C           -0.640850191179    -0.005921491676     0.168134832152
    C           -1.058990234373    -1.340771427697     0.355924645714
    C           -2.418694723277    -1.654908253188     0.508200537295
    C           -3.386472448328    -0.637965172860     0.484566915705
    C           -2.982004586218     0.696657501182     0.315720947876
    C           -1.622583034442     1.008941062479     0.165945907831
    H           -1.319321378383     2.052880036094     0.034890384071
    H           -3.727911332676     1.498294128253     0.302448561563
    H           -4.446784261706    -0.882062225940     0.605414415303
    H           -2.721368372457    -2.696939646302     0.656017709294
    H           -0.308210183884    -2.135482141079     0.406116018143
    C            1.717164019683    -0.280127993361    -0.763986742762
    C            3.067144830266     0.415755173380    -0.664740479821
    C            2.923098927591     1.293245773227     0.597904122382
    H            3.251263441211     0.712733017606     1.478841315966
    H            3.524780875769     2.216746124298     0.560095116659
    H            3.909590440886    -0.297375631112    -0.600757120024
    H            3.238145009972     1.028790803241    -1.573629647759
    C            1.524292711862    -1.430906053353    -1.715821146961
    H            0.461165000056    -1.674301720802    -1.865967689938
    H            1.966926893410    -1.183059164673    -2.698518212764
    H            2.041927697885    -2.338836240435    -1.352487517785
    H            1.061953106591     1.667105437591     1.753917988264
    H            1.119392703507     2.485782272397     0.176432958588

	Removing binary optimization data file.
	Cleaning optimization helper files.


Properties will be evaluated at   0.000000,   0.000000,   0.000000 [a0]
OEProp: No title given, name of density matrix used for the following properties is 'SCF density'
  Mulliken Charges: (a.u.)
   Center  Symbol    Alpha    Beta     Spin     Total
       1     C     2.99065  2.99065  0.00000  0.01870
       2     C     3.03503  3.03503  0.00000 -0.07006
       3     C     3.04713  3.04713  0.00000 -0.09425
       4     C     3.00201  3.00201  0.00000 -0.00401
       5     C     3.00156  3.00156  0.00000 -0.00312
       6     C     3.00937  3.00937  0.00000 -0.01874
       7     C     3.00175  3.00175  0.00000 -0.00349
       8     C     3.00211  3.00211  0.00000 -0.00422
       9     H     0.49729  0.49729  0.00000  0.00543
      10     H     0.49183  0.49183  0.00000  0.01634
      11     H     0.49192  0.49192  0.00000  0.01616
      12     H     0.49152  0.49152  0.00000  0.01696
      13     H     0.49596  0.49596  0.00000  0.00808
      14     C     3.11080  3.11080  0.00000 -0.22160
      15     C     2.99311  2.99311  0.00000  0.01377
      16     C     3.02167  3.02167  0.00000 -0.04334
      17     H     0.48215  0.48215  0.00000  0.03570
      18     H     0.48767  0.48767  0.00000  0.02465
      19     H     0.48519  0.48519  0.00000  0.02962
      20     H     0.48038  0.48038  0.00000  0.03925
      21     C     2.98830  2.98830  0.00000  0.02340
      22     H     0.47538  0.47538  0.00000  0.04923
      23     H     0.47925  0.47925  0.00000  0.04151
      24     H     0.47689  0.47689  0.00000  0.04622
      25     H     0.48202  0.48202  0.00000  0.03596
      26     H     0.47906  0.47906  0.00000  0.04188

   Total alpha = 43.00000, Total beta = 43.00000, Total charge =  0.00000

    Molecular point group: c1
    Full point group: C1

    Geometry (in Angstrom), charge = 0, multiplicity = 1:

       Center              X                  Y                   Z               Mass       
    ------------   -----------------  -----------------  -----------------  -----------------
         C            1.405003531971     1.556791653546     0.710071620753    12.000000000000
         C            0.796678423476     0.341056747819     0.015891570412    12.000000000000
         C           -0.640850191179    -0.005921491676     0.168134832152    12.000000000000
         C           -1.058990234373    -1.340771427697     0.355924645714    12.000000000000
         C           -2.418694723277    -1.654908253188     0.508200537295    12.000000000000
         C           -3.386472448328    -0.637965172860     0.484566915705    12.000000000000
         C           -2.982004586218     0.696657501182     0.315720947876    12.000000000000
         C           -1.622583034442     1.008941062479     0.165945907831    12.000000000000
         H           -1.319321378383     2.052880036094     0.034890384071     1.007825032230
         H           -3.727911332676     1.498294128253     0.302448561563     1.007825032230
         H           -4.446784261706    -0.882062225940     0.605414415303     1.007825032230
         H           -2.721368372457    -2.696939646302     0.656017709294     1.007825032230
         H           -0.308210183884    -2.135482141079     0.406116018143     1.007825032230
         C            1.717164019683    -0.280127993361    -0.763986742762    12.000000000000
         C            3.067144830266     0.415755173380    -0.664740479821    12.000000000000
         C            2.923098927591     1.293245773227     0.597904122382    12.000000000000
         H            3.251263441211     0.712733017606     1.478841315966     1.007825032230
         H            3.524780875769     2.216746124298     0.560095116659     1.007825032230
         H            3.909590440886    -0.297375631112    -0.600757120024     1.007825032230
         H            3.238145009972     1.028790803241    -1.573629647759     1.007825032230
         C            1.524292711862    -1.430906053353    -1.715821146961    12.000000000000
         H            0.461165000056    -1.674301720802    -1.865967689938     1.007825032230
         H            1.966926893410    -1.183059164673    -2.698518212764     1.007825032230
         H            2.041927697885    -2.338836240435    -1.352487517785     1.007825032230
         H            1.061953106591     1.667105437591     1.753917988264     1.007825032230
         H            1.119392703507     2.485782272397     0.176432958588     1.007825032230



  Variable Map:
  ----------------------------------------------------------------------------
  "CC D1 DIAGNOSTIC"                      =>       0.029175612370
  "CC D2 DIAGNOSTIC"                      =>       0.195185797934
  "CC NEW D1 DIAGNOSTIC"                  =>       0.029175612370
  "CC T1 DIAGNOSTIC"                      =>       0.008169798044
  "CCSD CORRELATION ENERGY"               =>      -1.731980368809
  "CCSD DOUBLES ENERGY"                   =>      -1.731980368809
  "CCSD ITERATIONS"                       =>      12.000000000000
  "CCSD OPPOSITE-SPIN CORRELATION ENERGY" =>      -1.349885818254
  "CCSD SAME-SPIN CORRELATION ENERGY"     =>      -0.382094550556
  "CCSD SINGLES ENERGY"                   =>       0.000000000000
  "CCSD TOTAL ENERGY"                     =>    -464.330534750800
  "CURRENT CORRELATION ENERGY"            =>      -1.731980368809
  "CURRENT DIPOLE X"                      =>       0.307731672202
  "CURRENT DIPOLE Y"                      =>      -0.066319500888
  "CURRENT DIPOLE Z"                      =>      -0.230498485972
  "CURRENT ENERGY"                        =>    -464.330534750800
  "CURRENT REFERENCE ENERGY"              =>    -462.597882024254
  "HF TOTAL ENERGY"                       =>    -462.597882024254
  "LCCSD (+LMP2) TOTAL ENERGY"            =>    -464.330534750800
  "MP2 CORRELATION ENERGY"                =>      -1.644354918027
  "MP2 DOUBLES ENERGY"                    =>      -1.644354918027
  "MP2 OPPOSITE-SPIN CORRELATION ENERGY"  =>      -1.219848846673
  "MP2 SAME-SPIN CORRELATION ENERGY"      =>      -0.424506071355
  "MP2 SINGLES ENERGY"                    =>      -0.000000000000
  "MP2 TOTAL ENERGY"                      =>    -464.242909300018
  "NUCLEAR REPULSION ENERGY"              =>     649.664054713901
  "ONE-ELECTRON ENERGY"                   =>   -1913.700771927161
  "OPTIMIZATION ITERATIONS"               =>       7.000000000000
  "PCM POLARIZATION ENERGY"               =>       0.000000000000
  "PE ENERGY"                             =>       0.000000000000
  "SCF DIPOLE X"                          =>       0.307731672202
  "SCF DIPOLE Y"                          =>      -0.066319500888
  "SCF DIPOLE Z"                          =>      -0.230498485972
  "SCF ITERATION ENERGY"                  =>    -462.597882024254
  "SCF ITERATIONS"                        =>      13.000000000000
  "SCF TOTAL ENERGY"                      =>    -462.597882024254
  "TWO-ELECTRON ENERGY"                   =>     801.438835189006



    Psi4 stopped on: Saturday, 19 February 2022 04:30AM
    Psi4 wall time for execution: 1 day, 4:37:38.15

*** Psi4 exiting successfully. Buy a developer a beer!
