
    -----------------------------------------------------------------------
          Psi4: An Open-Source Ab Initio Electronic Structure Package
                               Psi4 1.4 release

                         Git: Rev {HEAD} 9485035 


    D. G. A. Smith, L. A. Burns, A. C. Simmonett, R. M. Parrish,
    M. C. Schieber, R. Galvelis, P. Kraus, H. Kruse, R. Di Remigio,
    A. Alenaizan, A. M. James, S. Lehtola, J. P. Misiewicz, M. Scheurer,
    R. A. Shaw, J. B. Schriber, Y. Xie, Z. L. Glick, D. A. Sirianni,
    J. S. O'Brien, J. M. Waldrop, A. Kumar, E. G. Hohenstein,
    B. P. Pritchard, B. R. Brooks, H. F. Schaefer III, A. Yu. Sokolov,
    K. Patkowski, A. E. DePrince III, U. Bozkaya, R. A. King,
    F. A. Evangelista, J. M. Turney, T. D. Crawford, C. D. Sherrill,
    J. Chem. Phys. 152(18) 184108 (2020). https://doi.org/10.1063/5.0006002

                            Additional Code Authors
    E. T. Seidl, C. L. Janssen, E. F. Valeev, M. L. Leininger,
    J. F. Gonthier, R. M. Richard, H. R. McAlexander, M. Saitow, X. Wang,
    P. Verma, and M. H. Lechner

             Previous Authors, Complete List of Code Contributors,
                       and Citations for Specific Modules
    https://github.com/psi4/psi4/blob/master/codemeta.json
    https://github.com/psi4/psi4/graphs/contributors
    http://psicode.org/psi4manual/master/introduction.html#citing-psifour

    -----------------------------------------------------------------------


    Psi4 started on: Thursday, 25 November 2021 03:17AM

    Process ID: 3715668
    Host:       skystd03.palmetto.clemson.edu
    PSIDATADIR: /home/maxbuskirk/.conda/envs/psifour/share/psi4
    Memory:     500.0 MiB
    Threads:    1
    
  ==> Input File <==

--------------------------------------------------------------------------
memory 32 GB

molecule mol {
1 1
C    0.00000000  0.00000000  0.00000000
C   -0.82810000 -0.88190500 -0.95353500
C   -2.20167600 -1.29512600 -0.53908700
C   -2.37089200 -2.20347200  0.52701000
C   -3.65315900 -2.57423900  0.95833500
C   -4.78977300 -2.04120400  0.32637800
C   -4.63375300 -1.13584100 -0.73531600
C   -3.34793600 -0.76451300 -1.16154200
H   -3.22653200 -0.05260700 -1.98434600
H   -5.51451900 -0.71618200 -1.23119600
H   -5.79067600 -2.33256800  0.65835600
H   -3.76728100 -3.28440000  1.78319500
H   -1.48480000 -2.62888300  1.01093500
C   -0.47297000 -0.77068400 -2.42094700
H   -1.23384000 -1.07007300 -3.14730000
H    0.16834600  0.06137100 -2.73075700
C    0.15545600 -1.87025100 -1.58704500
C    1.54285300 -1.60489800 -1.00289800
C    1.26345500 -0.83009500  0.30138900
H    1.02838800 -1.55485600  1.10109100
H    2.11744400 -0.22067300  0.64257800
H    2.09368900 -2.54108900 -0.81943600
H    2.15158300 -0.99724100 -1.69631500
H   -0.16866300 -2.89696600 -1.78153100
H   -0.57146900  0.24062800  0.91033300
H    0.26424700  0.95586600 -0.48747600
H    0.70794595 -1.77289376 -2.26411283
}

set scf_type df
set opt_type ts
set basis cc-pVTZ
set reference rhf
set geom_maxiter 400


mol.update_geometry()
mol.symmetrize(1e-3)

e, wfn = optimize('mp2', return_wfn=True)
oeprop(wfn, "MULLIKEN_CHARGES")
mol.print_out()
print_variables()
--------------------------------------------------------------------------

  Memory set to  29.802 GiB by Python driver.

Scratch directory: /tmp/
gradient() will perform analytic gradient computation.

*** tstart() called on skystd03.palmetto.clemson.edu
*** at Thu Nov 25 03:17:53 2021

   => Loading Basis Set <=

    Name: CC-PVTZ
    Role: ORBITAL
    Keyword: BASIS
    atoms 1-8, 14, 17-19     entry C          line   186 file /home/maxbuskirk/.conda/envs/psifour/share/psi4/basis/cc-pvtz.gbs 
    atoms 9-13, 15-16, 20-27 entry H          line    23 file /home/maxbuskirk/.conda/envs/psifour/share/psi4/basis/cc-pvtz.gbs 


         ---------------------------------------------------------
                                   SCF
               by Justin Turney, Rob Parrish, Andy Simmonett
                          and Daniel G. A. Smith
                              RHF Reference
                        1 Threads,  30517 MiB Core
         ---------------------------------------------------------

  ==> Geometry <==

    Molecular point group: c1
    Full point group: C1

    Geometry (in Angstrom), charge = 1, multiplicity = 1:

       Center              X                  Y                   Z               Mass       
    ------------   -----------------  -----------------  -----------------  -----------------
         C            1.542053916194     1.323705191914     0.537726376213    12.000000000000
         C            0.713953916194     0.441800191914    -0.415808623787    12.000000000000
         C           -0.659622083806     0.028579191914    -0.001360623787    12.000000000000
         C           -0.828838083806    -0.879766808086     1.064736376213    12.000000000000
         C           -2.111105083806    -1.250533808086     1.496061376213    12.000000000000
         C           -3.247719083806    -0.717498808086     0.864104376213    12.000000000000
         C           -3.091699083806     0.187864191914    -0.197589623787    12.000000000000
         C           -1.805882083806     0.559192191914    -0.623815623787    12.000000000000
         H           -1.684478083806     1.271098191914    -1.446619623787     1.007825032230
         H           -3.972465083806     0.607523191914    -0.693469623787     1.007825032230
         H           -4.248622083806    -1.008862808086     1.196082376213     1.007825032230
         H           -2.225227083806    -1.960694808086     2.320921376213     1.007825032230
         H            0.057253916194    -1.305177808086     1.548661376213     1.007825032230
         C            1.069083916194     0.553021191914    -1.883220623787    12.000000000000
         H            0.308213916194     0.253632191914    -2.609573623787     1.007825032230
         H            1.710399916194     1.385076191914    -2.193030623787     1.007825032230
         C            1.697509916194    -0.546545808086    -1.049318623787    12.000000000000
         C            3.084906916194    -0.281192808086    -0.465171623787    12.000000000000
         C            2.805508916194     0.493610191914     0.839115376213    12.000000000000
         H            2.570441916194    -0.231150808086     1.638817376213     1.007825032230
         H            3.659497916194     1.103032191914     1.180304376213     1.007825032230
         H            3.635742916194    -1.217383808086    -0.281709623787     1.007825032230
         H            3.693636916194     0.326464191914    -1.158588623787     1.007825032230
         H            1.373390916194    -1.573260808086    -1.243804623787     1.007825032230
         H            0.970584916194     1.564333191914     1.448059376213     1.007825032230
         H            1.806300916194     2.279571191914     0.050250376213     1.007825032230
         H            2.249999866194    -0.449188568086    -1.726386453787     1.007825032230

  Running in c1 symmetry.

  Rotational constants: A =      0.07349  B =      0.01999  C =      0.01811 [cm^-1]
  Rotational constants: A =   2203.25446  B =    599.18783  C =    542.77442 [MHz]
  Nuclear repulsion =  683.952443964803820

  Charge       = 1
  Multiplicity = 1
  Electrons    = 86
  Nalpha       = 43
  Nbeta        = 43

  ==> Algorithm <==

  SCF Algorithm Type is DF.
  DIIS enabled.
  MOM disabled.
  Fractional occupation disabled.
  Guess Type is SAD.
  Energy threshold   = 1.00e-10
  Density threshold  = 1.00e-10
  Integral threshold = 1.00e-12

  ==> Primary Basis <==

  Basis Set: CC-PVTZ
    Blend: CC-PVTZ
    Number of shells: 210
    Number of basis functions: 570
    Number of Cartesian functions: 645
    Spherical Harmonics?: true
    Max angular momentum: 3

   => Loading Basis Set <=

    Name: (CC-PVTZ AUX)
    Role: JKFIT
    Keyword: DF_BASIS_SCF
    atoms 1-8, 14, 17-19     entry C          line   125 file /home/maxbuskirk/.conda/envs/psifour/share/psi4/basis/cc-pvtz-jkfit.gbs 
    atoms 9-13, 15-16, 20-27 entry H          line    51 file /home/maxbuskirk/.conda/envs/psifour/share/psi4/basis/cc-pvtz-jkfit.gbs 

  ==> Integral Setup <==

  DFHelper Memory: AOs need 2.917 GiB; user supplied 22.352 GiB. Using in-core AOs.

  ==> MemDFJK: Density-Fitted J/K Matrices <==

    J tasked:                   Yes
    K tasked:                   Yes
    wK tasked:                   No
    OpenMP threads:               1
    Memory [MiB]:             22888
    Algorithm:                 Core
    Schwarz Cutoff:           1E-12
    Mask sparsity (%):      16.2228
    Fitting Condition:        1E-10

   => Auxiliary Basis Set <=

  Basis Set: (CC-PVTZ AUX)
    Blend: CC-PVTZ-JKFIT
    Number of shells: 450
    Number of basis functions: 1398
    Number of Cartesian functions: 1677
    Spherical Harmonics?: true
    Max angular momentum: 4

  Minimum eigenvalue in the overlap matrix is 3.2985003661E-05.
  Reciprocal condition number of the overlap matrix is 3.1698743575E-06.
    Using symmetric orthogonalization.

  ==> Pre-Iterations <==

  SCF Guess: Superposition of Atomic Densities via on-the-fly atomic UHF (no occupation information).

   -------------------------
    Irrep   Nso     Nmo    
   -------------------------
     A        570     570 
   -------------------------
    Total     570     570
   -------------------------

  ==> Iterations <==

                           Total Energy        Delta E     RMS |[F,P]|

   @DF-RHF iter SAD:  -463.87032869476059   -4.63870e+02   0.00000e+00 
   @DF-RHF iter   1:  -462.61930663343247    1.25102e+00   1.10485e-03 DIIS
   @DF-RHF iter   2:  -462.85076847376564   -2.31462e-01   4.59576e-04 DIIS
   @DF-RHF iter   3:  -462.88703473028238   -3.62663e-02   1.25409e-04 DIIS
   @DF-RHF iter   4:  -462.89103765933766   -4.00293e-03   2.67206e-05 DIIS
   @DF-RHF iter   5:  -462.89119938905918   -1.61730e-04   1.03387e-05 DIIS
   @DF-RHF iter   6:  -462.89122605588210   -2.66668e-05   2.95517e-06 DIIS
   @DF-RHF iter   7:  -462.89122908135869   -3.02548e-06   1.09377e-06 DIIS
   @DF-RHF iter   8:  -462.89122965493954   -5.73581e-07   5.63597e-07 DIIS
   @DF-RHF iter   9:  -462.89122985850656   -2.03567e-07   2.23649e-07 DIIS
   @DF-RHF iter  10:  -462.89122990380076   -4.52942e-08   1.21870e-07 DIIS
   @DF-RHF iter  11:  -462.89122991447914   -1.06784e-08   4.57737e-08 DIIS
   @DF-RHF iter  12:  -462.89122991623066   -1.75152e-09   1.51015e-08 DIIS
   @DF-RHF iter  13:  -462.89122991636714   -1.36481e-10   6.12384e-09 DIIS
   @DF-RHF iter  14:  -462.89122991638379   -1.66551e-11   1.76301e-09 DIIS
   @DF-RHF iter  15:  -462.89122991638828   -4.49063e-12   5.93567e-10 DIIS
   @DF-RHF iter  16:  -462.89122991638783    4.54747e-13   2.22550e-10 DIIS
   @DF-RHF iter  17:  -462.89122991638646    1.36424e-12   1.07339e-10 DIIS
   @DF-RHF iter  18:  -462.89122991638675   -2.84217e-13   4.64637e-11 DIIS
  Energy and wave function converged.


  ==> Post-Iterations <==

    Orbital Energies [Eh]
    ---------------------

    Doubly Occupied:                                                      

       1A    -11.477834     2A    -11.466180     3A    -11.440524  
       4A    -11.436834     5A    -11.392822     6A    -11.391105  
       7A    -11.389420     8A    -11.373204     9A    -11.371976  
      10A    -11.362125    11A    -11.361295    12A    -11.360410  
      13A     -1.443083    14A     -1.282333    15A     -1.227112  
      16A     -1.217469    17A     -1.138688    18A     -1.136566  
      19A     -1.040542    20A     -1.014246    21A     -0.976014  
      22A     -0.950582    23A     -0.943882    24A     -0.879947  
      25A     -0.830913    26A     -0.826172    27A     -0.791601  
      28A     -0.772676    29A     -0.766254    30A     -0.755032  
      31A     -0.732405    32A     -0.711759    33A     -0.705198  
      34A     -0.689764    35A     -0.659945    36A     -0.657222  
      37A     -0.647273    38A     -0.625693    39A     -0.623458  
      40A     -0.614802    41A     -0.595273    42A     -0.462792  
      43A     -0.459614  

    Virtual:                                                              

      44A     -0.042802    45A     -0.015304    46A     -0.006226  
      47A     -0.004217    48A      0.010491    49A      0.015694  
      50A      0.023192    51A      0.045311    52A      0.055825  
      53A      0.061067    54A      0.064058    55A      0.075063  
      56A      0.081400    57A      0.089722    58A      0.097989  
      59A      0.110854    60A      0.118800    61A      0.131527  
      62A      0.143083    63A      0.166311    64A      0.177364  
      65A      0.182392    66A      0.191804    67A      0.204776  
      68A      0.224394    69A      0.234040    70A      0.246803  
      71A      0.256305    72A      0.258347    73A      0.263387  
      74A      0.269211    75A      0.276936    76A      0.290080  
      77A      0.295241    78A      0.312810    79A      0.320717  
      80A      0.336954    81A      0.341913    82A      0.345471  
      83A      0.362627    84A      0.374625    85A      0.377522  
      86A      0.392043    87A      0.401949    88A      0.412911  
      89A      0.416262    90A      0.420596    91A      0.424766  
      92A      0.433670    93A      0.434735    94A      0.436294  
      95A      0.447742    96A      0.458835    97A      0.464339  
      98A      0.468985    99A      0.473751   100A      0.475286  
     101A      0.477657   102A      0.479489   103A      0.491447  
     104A      0.497187   105A      0.501920   106A      0.509436  
     107A      0.515082   108A      0.522313   109A      0.532093  
     110A      0.537210   111A      0.542851   112A      0.546199  
     113A      0.550508   114A      0.561166   115A      0.575969  
     116A      0.588954   117A      0.607170   118A      0.611565  
     119A      0.620754   120A      0.635113   121A      0.641572  
     122A      0.644382   123A      0.679608   124A      0.692914  
     125A      0.707710   126A      0.721436   127A      0.729150  
     128A      0.750863   129A      0.754276   130A      0.768885  
     131A      0.787060   132A      0.791427   133A      0.810823  
     134A      0.814979   135A      0.820244   136A      0.831311  
     137A      0.837060   138A      0.857301   139A      0.867090  
     140A      0.875416   141A      0.877517   142A      0.888638  
     143A      0.893882   144A      0.906955   145A      0.915963  
     146A      0.928640   147A      0.933464   148A      0.960560  
     149A      0.968691   150A      0.975689   151A      1.000720  
     152A      1.013786   153A      1.016391   154A      1.019460  
     155A      1.025074   156A      1.034417   157A      1.048371  
     158A      1.055089   159A      1.067692   160A      1.074287  
     161A      1.088659   162A      1.102670   163A      1.104175  
     164A      1.114742   165A      1.118993   166A      1.135580  
     167A      1.137733   168A      1.150244   169A      1.155583  
     170A      1.161979   171A      1.169697   172A      1.186347  
     173A      1.194386   174A      1.204448   175A      1.210353  
     176A      1.214490   177A      1.236389   178A      1.246454  
     179A      1.257530   180A      1.266915   181A      1.272761  
     182A      1.274766   183A      1.281737   184A      1.289960  
     185A      1.295222   186A      1.312589   187A      1.318161  
     188A      1.334239   189A      1.345781   190A      1.351468  
     191A      1.364142   192A      1.368482   193A      1.377375  
     194A      1.382126   195A      1.389347   196A      1.397614  
     197A      1.406081   198A      1.412911   199A      1.426357  
     200A      1.438538   201A      1.443772   202A      1.457069  
     203A      1.462705   204A      1.467336   205A      1.487351  
     206A      1.499166   207A      1.507693   208A      1.512641  
     209A      1.520438   210A      1.526888   211A      1.541702  
     212A      1.545095   213A      1.551613   214A      1.560844  
     215A      1.577356   216A      1.590804   217A      1.599430  
     218A      1.607859   219A      1.617744   220A      1.627258  
     221A      1.650091   222A      1.671232   223A      1.680863  
     224A      1.701557   225A      1.709591   226A      1.727970  
     227A      1.742185   228A      1.746632   229A      1.794899  
     230A      1.809070   231A      1.826972   232A      1.859879  
     233A      1.865559   234A      1.912852   235A      1.937915  
     236A      1.965466   237A      1.981507   238A      2.042661  
     239A      2.079382   240A      2.110474   241A      2.165012  
     242A      2.210797   243A      2.236311   244A      2.274916  
     245A      2.323098   246A      2.330823   247A      2.352902  
     248A      2.360229   249A      2.377089   250A      2.414960  
     251A      2.430753   252A      2.438556   253A      2.450561  
     254A      2.474138   255A      2.488320   256A      2.503053  
     257A      2.507586   258A      2.533382   259A      2.547904  
     260A      2.568575   261A      2.587137   262A      2.598027  
     263A      2.605429   264A      2.624010   265A      2.633694  
     266A      2.656226   267A      2.659967   268A      2.671528  
     269A      2.681260   270A      2.686779   271A      2.698968  
     272A      2.706079   273A      2.716176   274A      2.722408  
     275A      2.741551   276A      2.749633   277A      2.760879  
     278A      2.761619   279A      2.773925   280A      2.788301  
     281A      2.801215   282A      2.809061   283A      2.812514  
     284A      2.828501   285A      2.837253   286A      2.848821  
     287A      2.855398   288A      2.869551   289A      2.886702  
     290A      2.893675   291A      2.900384   292A      2.904757  
     293A      2.912796   294A      2.917550   295A      2.928298  
     296A      2.931909   297A      2.945459   298A      2.956425  
     299A      2.964635   300A      2.972127   301A      3.001691  
     302A      3.009444   303A      3.019819   304A      3.039815  
     305A      3.052402   306A      3.059176   307A      3.067918  
     308A      3.083179   309A      3.094107   310A      3.103774  
     311A      3.108267   312A      3.115459   313A      3.121331  
     314A      3.142135   315A      3.152811   316A      3.163938  
     317A      3.175666   318A      3.178997   319A      3.183425  
     320A      3.194674   321A      3.202801   322A      3.208549  
     323A      3.217320   324A      3.221601   325A      3.231283  
     326A      3.239811   327A      3.241267   328A      3.245379  
     329A      3.254381   330A      3.255830   331A      3.264632  
     332A      3.273648   333A      3.281217   334A      3.289442  
     335A      3.297340   336A      3.303117   337A      3.306417  
     338A      3.324914   339A      3.329570   340A      3.349180  
     341A      3.350899   342A      3.357787   343A      3.366034  
     344A      3.377266   345A      3.379300   346A      3.389557  
     347A      3.402337   348A      3.412925   349A      3.428431  
     350A      3.433282   351A      3.444088   352A      3.453589  
     353A      3.464778   354A      3.475149   355A      3.477749  
     356A      3.487968   357A      3.503305   358A      3.504529  
     359A      3.524198   360A      3.525583   361A      3.528535  
     362A      3.532429   363A      3.548481   364A      3.558833  
     365A      3.565561   366A      3.574609   367A      3.575718  
     368A      3.594758   369A      3.612309   370A      3.621507  
     371A      3.634072   372A      3.634922   373A      3.636817  
     374A      3.649940   375A      3.656516   376A      3.675837  
     377A      3.681879   378A      3.706104   379A      3.717334  
     380A      3.720615   381A      3.748372   382A      3.762969  
     383A      3.766707   384A      3.801420   385A      3.805153  
     386A      3.814046   387A      3.828254   388A      3.838864  
     389A      3.846997   390A      3.857603   391A      3.869484  
     392A      3.882897   393A      3.883744   394A      3.897002  
     395A      3.901217   396A      3.919874   397A      3.928010  
     398A      3.935506   399A      3.941859   400A      3.952971  
     401A      3.960888   402A      3.969488   403A      3.971584  
     404A      3.979301   405A      3.985413   406A      3.987843  
     407A      4.002087   408A      4.009976   409A      4.020996  
     410A      4.024740   411A      4.040895   412A      4.045226  
     413A      4.058248   414A      4.068258   415A      4.073434  
     416A      4.080047   417A      4.090623   418A      4.095377  
     419A      4.116495   420A      4.128172   421A      4.145643  
     422A      4.148614   423A      4.165190   424A      4.173180  
     425A      4.178124   426A      4.189481   427A      4.211409  
     428A      4.217932   429A      4.226423   430A      4.233201  
     431A      4.253342   432A      4.259299   433A      4.267646  
     434A      4.273102   435A      4.282912   436A      4.295843  
     437A      4.304663   438A      4.317279   439A      4.322999  
     440A      4.338144   441A      4.342404   442A      4.352264  
     443A      4.363894   444A      4.376657   445A      4.393881  
     446A      4.399717   447A      4.406456   448A      4.418790  
     449A      4.430343   450A      4.446608   451A      4.449162  
     452A      4.454887   453A      4.467777   454A      4.475568  
     455A      4.484424   456A      4.489301   457A      4.498454  
     458A      4.513049   459A      4.516603   460A      4.525793  
     461A      4.535589   462A      4.550950   463A      4.552905  
     464A      4.560504   465A      4.569591   466A      4.590000  
     467A      4.602957   468A      4.608877   469A      4.634158  
     470A      4.642082   471A      4.661085   472A      4.670810  
     473A      4.691050   474A      4.698096   475A      4.719167  
     476A      4.736987   477A      4.762425   478A      4.776514  
     479A      4.803172   480A      4.822048   481A      4.852008  
     482A      4.883007   483A      4.884152   484A      4.894928  
     485A      4.904201   486A      4.929042   487A      4.947235  
     488A      4.952035   489A      4.964566   490A      4.973671  
     491A      4.988523   492A      5.008868   493A      5.022387  
     494A      5.040769   495A      5.051740   496A      5.070837  
     497A      5.088080   498A      5.105649   499A      5.115734  
     500A      5.129484   501A      5.136275   502A      5.146201  
     503A      5.150521   504A      5.174444   505A      5.194216  
     506A      5.198383   507A      5.212785   508A      5.217239  
     509A      5.228184   510A      5.254133   511A      5.268252  
     512A      5.279324   513A      5.285733   514A      5.312414  
     515A      5.319969   516A      5.342616   517A      5.353955  
     518A      5.364719   519A      5.384965   520A      5.393898  
     521A      5.424639   522A      5.446530   523A      5.464223  
     524A      5.485439   525A      5.538372   526A      5.539277  
     527A      5.549097   528A      5.563797   529A      5.611752  
     530A      5.650799   531A      5.659831   532A      5.673206  
     533A      5.699007   534A      5.726151   535A      5.769700  
     536A      5.784526   537A      5.796990   538A      5.818447  
     539A      5.867723   540A      5.898260   541A      5.928951  
     542A      5.962117   543A      5.977914   544A      6.023914  
     545A      6.093930   546A      6.155901   547A      6.173140  
     548A      6.197449   549A      6.220291   550A      6.238095  
     551A      6.264784   552A      6.264978   553A      6.302071  
     554A      6.350244   555A      6.469316   556A      6.635710  
     557A      6.705991   558A      7.031406   559A      9.581808  
     560A     12.068356   561A     12.350168   562A     12.719338  
     563A     12.963070   564A     13.102668   565A     13.250209  
     566A     13.552248   567A     13.682803   568A     13.808605  
     569A     15.801530   570A     16.431425  

    Final Occupation by Irrep:
              A 
    DOCC [    43 ]

  @DF-RHF Final Energy:  -462.89122991638675

   => Energetics <=

    Nuclear Repulsion Energy =            683.9524439648038197
    One-Electron Energy =               -1967.6832635771759215
    Two-Electron Energy =                 820.8395896959855236
    Total Energy =                       -462.8912299163866919

Computation Completed


Properties will be evaluated at   0.000000,   0.000000,   0.000000 [a0]

Properties computed using the SCF density matrix

  Nuclear Dipole Moment: [e a0]
     X:     9.2853      Y:     0.9797      Z:    -1.8469

  Electronic Dipole Moment: [e a0]
     X:    -7.0636      Y:    -0.9617      Z:     0.4702

  Dipole Moment: [e a0]
     X:     2.2217      Y:     0.0180      Z:    -1.3767     Total:     2.6137

  Dipole Moment: [D]
     X:     5.6470      Y:     0.0457      Z:    -3.4992     Total:     6.6434


*** tstop() called on skystd03.palmetto.clemson.edu at Thu Nov 25 03:19:05 2021
Module time:
	user time   =      69.54 seconds =       1.16 minutes
	system time =       2.31 seconds =       0.04 minutes
	total time  =         72 seconds =       1.20 minutes
Total time:
	user time   =      69.54 seconds =       1.16 minutes
	system time =       2.31 seconds =       0.04 minutes
	total time  =         72 seconds =       1.20 minutes

*** tstart() called on skystd03.palmetto.clemson.edu
*** at Thu Nov 25 03:19:05 2021


  //>>>>>>>>>>>>>>>>>>>>>>>>>>>>>>>>>>>//
  //               DFMP2               //
  //<<<<<<<<<<<<<<<<<<<<<<<<<<<<<<<<<<<//

   => Loading Basis Set <=

    Name: (CC-PVTZ AUX)
    Role: RIFIT
    Keyword: DF_BASIS_MP2
    atoms 1-8, 14, 17-19     entry C          line   209 file /home/maxbuskirk/.conda/envs/psifour/share/psi4/basis/cc-pvtz-ri.gbs 
    atoms 9-13, 15-16, 20-27 entry H          line    19 file /home/maxbuskirk/.conda/envs/psifour/share/psi4/basis/cc-pvtz-ri.gbs 

	 --------------------------------------------------------
	                          DF-MP2                         
	      2nd-Order Density-Fitted Moller-Plesset Theory     
	              RMP2 Wavefunction,   1 Threads             
	                                                         
	        Rob Parrish, Justin Turney, Andy Simmonett,      
	           Ed Hohenstein, and C. David Sherrill          
	 --------------------------------------------------------

   => Auxiliary Basis Set <=

  Basis Set: (CC-PVTZ AUX)
    Blend: CC-PVTZ-RI
    Number of shells: 426
    Number of basis functions: 1422
    Number of Cartesian functions: 1737
    Spherical Harmonics?: true
    Max angular momentum: 4

	 --------------------------------------------------------
	                 NBF =   570, NAUX =  1422
	 --------------------------------------------------------
	   CLASS    FOCC     OCC    AOCC    AVIR     VIR    FVIR
	   PAIRS       0      43      43     527     527       0
	 --------------------------------------------------------

  DFHelper Memory: AOs need 2.917 GiB; user supplied 22.352 GiB. Using in-core AOs.


         ------------------------------------------------------------
                                     CPHF                           
                                  Rob Parrish                       
         ------------------------------------------------------------

  ==> Geometry <==

    Molecular point group: c1
    Full point group: C1

    Geometry (in Angstrom), charge = 1, multiplicity = 1:

       Center              X                  Y                   Z               Mass       
    ------------   -----------------  -----------------  -----------------  -----------------
         C            1.542053916194     1.323705191914     0.537726376213    12.000000000000
         C            0.713953916194     0.441800191914    -0.415808623787    12.000000000000
         C           -0.659622083806     0.028579191914    -0.001360623787    12.000000000000
         C           -0.828838083806    -0.879766808086     1.064736376213    12.000000000000
         C           -2.111105083806    -1.250533808086     1.496061376213    12.000000000000
         C           -3.247719083806    -0.717498808086     0.864104376213    12.000000000000
         C           -3.091699083806     0.187864191914    -0.197589623787    12.000000000000
         C           -1.805882083806     0.559192191914    -0.623815623787    12.000000000000
         H           -1.684478083806     1.271098191914    -1.446619623787     1.007825032230
         H           -3.972465083806     0.607523191914    -0.693469623787     1.007825032230
         H           -4.248622083806    -1.008862808086     1.196082376213     1.007825032230
         H           -2.225227083806    -1.960694808086     2.320921376213     1.007825032230
         H            0.057253916194    -1.305177808086     1.548661376213     1.007825032230
         C            1.069083916194     0.553021191914    -1.883220623787    12.000000000000
         H            0.308213916194     0.253632191914    -2.609573623787     1.007825032230
         H            1.710399916194     1.385076191914    -2.193030623787     1.007825032230
         C            1.697509916194    -0.546545808086    -1.049318623787    12.000000000000
         C            3.084906916194    -0.281192808086    -0.465171623787    12.000000000000
         C            2.805508916194     0.493610191914     0.839115376213    12.000000000000
         H            2.570441916194    -0.231150808086     1.638817376213     1.007825032230
         H            3.659497916194     1.103032191914     1.180304376213     1.007825032230
         H            3.635742916194    -1.217383808086    -0.281709623787     1.007825032230
         H            3.693636916194     0.326464191914    -1.158588623787     1.007825032230
         H            1.373390916194    -1.573260808086    -1.243804623787     1.007825032230
         H            0.970584916194     1.564333191914     1.448059376213     1.007825032230
         H            1.806300916194     2.279571191914     0.050250376213     1.007825032230
         H            2.249999866194    -0.449188568086    -1.726386453787     1.007825032230

  Nuclear repulsion =  683.952443964803820
  Reference energy  = -462.891229916386749

  ==> Basis Set <==

  Basis Set: CC-PVTZ
    Blend: CC-PVTZ
    Number of shells: 210
    Number of basis functions: 570
    Number of Cartesian functions: 645
    Spherical Harmonics?: true
    Max angular momentum: 3

  ==> CGRSolver (by Rob Parrish) <==

   Number of roots    =         1
   Preconditioning    =    JACOBI
   Convergence cutoff =     1E-06
   Maximum iterations =       100

  ==> CPHFRHamiltonian (by Rob Parrish) <== 

  ==> MemDFJK: Density-Fitted J/K Matrices <==

    J tasked:                   Yes
    K tasked:                   Yes
    wK tasked:                   No
    OpenMP threads:               1
    Memory [MiB]:             22888
    Algorithm:                 Core
    Schwarz Cutoff:           1E-12
    Mask sparsity (%):      16.2228
    Fitting Condition:        1E-10

   => Auxiliary Basis Set <=

  Basis Set: (CC-PVTZ AUX)
    Blend: CC-PVTZ-JKFIT
    Number of shells: 450
    Number of basis functions: 1398
    Number of Cartesian functions: 1677
    Spherical Harmonics?: true
    Max angular momentum: 4

  ==> CPHF Iterations <==

  => Iterations <=

             Iter  Converged  Remaining    Residual
  CGR           1          0          1   8.017E-02
  CGR           2          0          1   1.672E-02
  CGR           3          0          1   7.059E-03
  CGR           4          0          1   3.136E-03
  CGR           5          0          1   1.348E-03
  CGR           6          0          1   6.778E-04
  CGR           7          0          1   2.676E-04
  CGR           8          0          1   8.713E-05
  CGR           9          0          1   3.353E-05
  CGR          10          0          1   1.062E-05
  CGR          11          0          1   3.980E-06
  CGR          12          0          1   1.244E-06
  CGR          13          1          0   5.574E-07

    CGRSolver converged.

  ==> DFCorrGrad: Density-Fitted Correlated Gradients <==

    OpenMP threads:              1
    Integrals threads:           1
    Memory [GiB]:           22.352
    Schwarz Cutoff:          0E+00
    Fitting Condition:       1E-10

   => Auxiliary Basis Set <=

  Basis Set: (CC-PVTZ AUX)
    Blend: CC-PVTZ-JKFIT
    Number of shells: 450
    Number of basis functions: 1398
    Number of Cartesian functions: 1677
    Spherical Harmonics?: true
    Max angular momentum: 4

	-----------------------------------------------------------
	 ==================> DF-MP2 Energies <==================== 
	-----------------------------------------------------------
	 Reference Energy          =    -462.8912299163867488 [Eh]
	 Singles Energy            =      -0.0000000000000000 [Eh]
	 Same-Spin Energy          =      -0.5153416117514663 [Eh]
	 Opposite-Spin Energy      =      -1.6421781327308276 [Eh]
	 Correlation Energy        =      -2.1575197444822938 [Eh]
	 Total Energy              =    -465.0487496608690208 [Eh]
	-----------------------------------------------------------
	 ================> DF-SCS-MP2 Energies <================== 
	-----------------------------------------------------------
	 SCS Same-Spin Scale       =       0.3333333333333333 [-]
	 SCS Opposite-Spin Scale   =       1.2000000000000000 [-]
	 SCS Same-Spin Energy      =      -0.1717805372504888 [Eh]
	 SCS Opposite-Spin Energy  =      -1.9706137592769930 [Eh]
	 SCS Correlation Energy    =      -2.1423942965274816 [Eh]
	 SCS Total Energy          =    -465.0336242129142192 [Eh]
	-----------------------------------------------------------


  -Total Gradient:
     Atom            X                  Y                   Z
    ------   -----------------  -----------------  -----------------
       1       -0.006587052014    -0.003464290064    -0.001999965236
       2        0.004064458330    -0.031453228343     0.024600895599
       3        0.007679862753     0.014208215358    -0.001075045896
       4       -0.001014698773    -0.001353867869     0.001124701141
       5       -0.001581295085    -0.002130409668     0.002821307158
       6       -0.004415072928    -0.001371031096     0.001773946737
       7       -0.003684069388     0.000652284145    -0.002162848073
       8       -0.003372423170     0.000269856072     0.001958759828
       9        0.002648923132     0.006674026670    -0.008356149403
      10       -0.010570282147     0.004395259310    -0.005370302442
      11       -0.011514461682    -0.003415512853     0.003787374651
      12       -0.001813083665    -0.008098256978     0.009357521960
      13        0.009760749542    -0.003622380233     0.003645375039
      14        0.054701901654    -0.049702285766    -0.008364158496
      15       -0.010448778264     0.003752913421    -0.006844414399
      16       -0.000294957019     0.012956987180    -0.004865806889
      17        0.148226531873     0.098279292286    -0.200081813583
      18       -0.038615538566    -0.004791410810    -0.042980937685
      19        0.003041549523    -0.002870494635    -0.009024114039
      20       -0.002870426461    -0.006102029736     0.009263904573
      21        0.008732414395     0.007427721903     0.005872581841
      22        0.008584247922    -0.008205989328     0.004393390637
      23        0.006843404296     0.004631904200    -0.005756354884
      24        0.003647151488    -0.007073976582    -0.012956579159
      25       -0.004899153200     0.004454014527     0.010824450658
      26        0.003442797696     0.010230559716    -0.003833343319
      27       -0.159692700248    -0.034277870825     0.234247623670


*** tstop() called on skystd03.palmetto.clemson.edu at Thu Nov 25 03:26:07 2021
Module time:
	user time   =     406.03 seconds =       6.77 minutes
	system time =      14.80 seconds =       0.25 minutes
	total time  =        422 seconds =       7.03 minutes
Total time:
	user time   =     475.57 seconds =       7.93 minutes
	system time =      17.11 seconds =       0.29 minutes
	total time  =        494 seconds =       8.23 minutes

			-----------------------------------------
			 OPTKING 2.0: for geometry optimizations 
			  - R.A. King,  Bethel University        
			-----------------------------------------

	Internal coordinates to be generated automatically.
	Detected frag 1 with atoms:  1 2 3 4 5 6 7 8 9 10 11 12 13 14 15 16 17 18 19 20
	 21 22 23 24 25 26 27
	---Fragment 1 Bond Connectivity---
	 1 : 2 19 25 26
	 2 : 1 3 14 17
	 3 : 2 4 8
	 4 : 3 5 13
	 5 : 4 6 12
	 6 : 5 7 11
	 7 : 6 8 10
	 8 : 3 7 9
	 9 : 8
	 10 : 7
	 11 : 6
	 12 : 5
	 13 : 4
	 14 : 2 15 16 17
	 15 : 14
	 16 : 14
	 17 : 2 14 18 24 27
	 18 : 17 19 22 23
	 19 : 1 18 20 21
	 20 : 19
	 21 : 19
	 22 : 18
	 23 : 18
	 24 : 17
	 25 : 1
	 26 : 1
	 27 : 17

	---Fragment 1 Geometry and Gradient---
	 C           2.9140595723        2.5014402836        1.0161555815
	 C           1.3491773678        0.8348813649       -0.7857644196
	 C          -1.2465050847        0.0540068456       -0.0025712063
	 C          -1.5662769807       -1.6625183216        2.0120601469
	 C          -3.9894104305       -2.3631664079        2.8271462679
	 C          -6.1372996008       -1.3558762426        1.6329206149
	 C          -5.8424645307        0.3550118715       -0.3733902742
	 C          -3.4126225533        1.0567200942       -1.1788406817
	 H          -3.1832022427        2.4020274613       -2.7337148967
	 H          -7.5068710513        1.1480524476       -1.3104676653
	 H          -8.0287321490       -1.9064744054        2.2602681145
	 H          -4.2050697553       -3.7051762029        4.3859057598
	 H           0.1081942212       -2.4664286023        2.9265458621
	 C           2.0202758067        1.0450585943       -3.5587712128
	 H           0.5824398897        0.4792953793       -4.9313794532
	 H           3.2321874066        2.6174146656       -4.1442272637
	 C           3.2078288369       -1.0328218923       -1.9829248173
	 C           5.8296291941       -0.5313773957       -0.8790469703
	 C           5.3016434941        0.9327880755        1.5856982487
	 H           4.8574312430       -0.4368117210        3.0969160107
	 H           6.9154488183        2.0844287503        2.2304520157
	 H           6.8705583742       -2.3005219868       -0.5323540359
	 H           6.9799621785        0.6169279125       -2.1894151910
	 H           2.5953326948       -2.9730320512       -2.3504500925
	 H           1.8341396731        2.9561613017        2.7364356344
	 H           3.4134140318        4.3077652362        0.0949594487
	 H           4.2518835294       -0.8488433724       -3.2623975844
	            -0.0065870520       -0.0034642901       -0.0019999652
	             0.0040644583       -0.0314532283        0.0246008956
	             0.0076798628        0.0142082154       -0.0010750459
	            -0.0010146988       -0.0013538679        0.0011247011
	            -0.0015812951       -0.0021304097        0.0028213072
	            -0.0044150729       -0.0013710311        0.0017739467
	            -0.0036840694        0.0006522841       -0.0021628481
	            -0.0033724232        0.0002698561        0.0019587598
	             0.0026489231        0.0066740267       -0.0083561494
	            -0.0105702821        0.0043952593       -0.0053703024
	            -0.0115144617       -0.0034155129        0.0037873747
	            -0.0018130837       -0.0080982570        0.0093575220
	             0.0097607495       -0.0036223802        0.0036453750
	             0.0547019017       -0.0497022858       -0.0083641585
	            -0.0104487783        0.0037529134       -0.0068444144
	            -0.0002949570        0.0129569872       -0.0048658069
	             0.1482265319        0.0982792923       -0.2000818136
	            -0.0386155386       -0.0047914108       -0.0429809377
	             0.0030415495       -0.0028704946       -0.0090241140
	            -0.0028704265       -0.0061020297        0.0092639046
	             0.0087324144        0.0074277219        0.0058725818
	             0.0085842479       -0.0082059893        0.0043933906
	             0.0068434043        0.0046319042       -0.0057563549
	             0.0036471515       -0.0070739766       -0.0129565792
	            -0.0048991532        0.0044540145        0.0108244507
	             0.0034427977        0.0102305597       -0.0038333433
	            -0.1596927002       -0.0342778708        0.2342476237

	Previous optimization step data not found.  Starting new optimization.

	---Fragment 1 Intrafragment Coordinates---
	 - Coordinate -           - BOHR/RAD -       - ANG/DEG -
	 R(1,2)           =         2.910875	       1.540368
	 R(1,19)          =         2.913006	       1.541497
	 R(1,25)          =         2.081433	       1.101447
	 R(1,26)          =         2.088245	       1.105052
	 R(2,3)           =         2.821476	       1.493061
	 R(2,14)          =         2.860789	       1.513864
	 R(2,17)          =         2.894148	       1.531517
	 R(3,4)           =         2.665981	       1.410776
	 R(3,8)           =         2.661035	       1.408159
	 R(4,5)           =         2.650820	       1.402754
	 R(4,13)          =         2.070365	       1.095590
	 R(5,6)           =         2.655981	       1.405485
	 R(5,12)          =         2.068147	       1.094416
	 R(6,7)           =         2.653177	       1.404001
	 R(6,11)          =         2.067424	       1.094033
	 R(7,8)           =         2.654294	       1.404592
	 R(7,10)          =         2.068158	       1.094422
	 R(8,9)           =         2.068845	       1.094786
	 R(14,15)         =         2.066764	       1.093684
	 R(14,16)         =         2.069732	       1.095255
	 R(14,17)         =         2.865512	       1.516364
	 R(17,18)         =         2.888569	       1.528565
	 R(17,24)         =         2.067521	       1.094085
	 R(17,27)         =         1.661610	       0.879286
	 R(18,19)         =         2.915050	       1.542578
	 R(18,22)         =         2.081731	       1.101604
	 R(18,23)         =         2.087806	       1.104820
	 R(19,20)         =         2.087321	       1.104562
	 R(19,21)         =         2.084790	       1.103224
	 B(1,2,3)         =         2.072817	     118.763664
	 B(1,2,14)        =         2.017351	     115.585685
	 B(1,2,17)        =         1.854886	     106.277162
	 B(1,19,18)       =         1.827213	     104.691617
	 B(1,19,20)       =         1.897014	     108.690913
	 B(1,19,21)       =         1.979545	     113.419580
	 B(2,1,19)        =         1.826944	     104.676198
	 B(2,1,25)        =         1.936680	     110.963570
	 B(2,1,26)        =         1.929130	     110.530986
	 B(2,3,4)         =         2.092441	     119.888038
	 B(2,3,8)         =         2.119852	     121.458574
	 B(2,14,15)       =         2.049292	     117.415782
	 B(2,14,16)       =         2.057096	     117.862942
	 B(2,14,17)       =         1.059720	      60.717500
	 B(2,17,14)       =         1.039528	      59.560564
	 B(2,17,18)       =         1.888930	     108.227717
	 B(2,17,24)       =         2.081600	     119.266883
	 B(2,17,27)       =         2.279157	     130.586071
	 B(3,2,14)        =         2.100422	     120.345328
	 B(3,2,17)        =         2.125903	     121.805252
	 B(3,4,5)         =         2.108523	     120.809467
	 B(3,4,13)        =         2.079202	     119.129487
	 B(3,8,7)         =         2.107639	     120.758819
	 B(3,8,9)         =         2.079425	     119.142292
	 B(4,3,8)         =         2.070330	     118.621159
	 B(4,5,6)         =         2.095249	     120.048921
	 B(4,5,12)        =         2.092759	     119.906259
	 B(5,4,13)        =         2.095393	     120.057181
	 B(5,6,7)         =         2.088291	     119.650243
	 B(5,6,11)        =         2.097186	     120.159915
	 B(6,5,12)        =         2.095155	     120.043517
	 B(6,7,8)         =         2.096327	     120.110679
	 B(6,7,10)        =         2.094932	     120.030779
	 B(7,6,11)        =         2.097705	     120.189618
	 B(7,8,9)         =         2.096116	     120.098614
	 B(8,7,10)        =         2.091924	     119.858405
	 B(14,2,17)       =         1.042344	      59.721936
	 B(14,17,18)      =         2.049282	     117.415187
	 B(14,17,24)      =         2.048738	     117.384025
	 B(14,17,27)      =         1.324980	      75.915786
	 B(15,14,16)      =         2.012474	     115.306264
	 B(15,14,17)      =         2.043221	     117.067911
	 B(16,14,17)      =         2.053042	     117.630648
	 B(17,18,19)      =         1.819262	     104.236043
	 B(17,18,22)      =         1.949769	     111.713517
	 B(17,18,23)      =         1.934481	     110.837597
	 B(18,17,24)      =         2.094079	     119.981893
	 B(18,17,27)      =         1.271063	      72.826571
	 B(18,19,20)      =         1.897723	     108.731493
	 B(18,19,21)      =         1.980944	     113.499740
	 B(19,1,25)       =         1.962002	     112.414409
	 B(19,1,26)       =         1.934839	     110.858094
	 B(19,18,22)      =         1.956931	     112.123910
	 B(19,18,23)      =         1.932871	     110.745342
	 B(20,19,21)      =         1.878938	     107.655190
	 B(22,18,23)      =         1.871758	     107.243849
	 B(24,17,27)      =         1.724570	      98.810603
	 B(25,1,26)       =         1.875161	     107.438837
	 D(1,2,3,4)       =        -1.201325	     -68.830845
	 D(1,2,3,8)       =         1.903727	     109.075519
	 D(1,2,14,15)     =        -2.759824	    -158.126276
	 D(1,2,14,16)     =        -0.229547	     -13.152074
	 D(1,2,14,17)     =         1.651177	      94.605460
	 D(1,2,17,14)     =        -1.928884	    -110.516925
	 D(1,2,17,18)     =         0.019569	       1.121217
	 D(1,2,17,24)     =         2.497380	     143.089359
	 D(1,2,17,27)     =        -1.423665	     -81.569998
	 D(1,19,18,17)    =        -0.573602	     -32.864999
	 D(1,19,18,22)    =        -2.685602	    -153.873654
	 D(1,19,18,23)    =         1.507600	      86.379143
	 D(2,1,19,18)     =         0.589407	      33.770540
	 D(2,1,19,20)     =        -1.436065	     -82.280465
	 D(2,1,19,21)     =         2.757968	     158.019943
	 D(2,3,4,5)       =         3.108309	     178.092997
	 D(2,3,4,13)      =        -0.045760	      -2.621861
	 D(2,3,8,7)       =        -3.110817	    -178.236678
	 D(2,3,8,9)       =         0.027453	       1.572949
	 D(2,14,17,18)    =        -1.674893	     -95.964306
	 D(2,14,17,24)    =         1.911561	     109.524357
	 D(2,14,17,27)    =        -2.752926	    -157.731029
	 D(2,17,14,15)    =        -1.882068	    -107.834530
	 D(2,17,14,16)    =         1.887309	     108.134828
	 D(2,17,18,19)    =         0.342659	      19.632931
	 D(2,17,18,22)    =         2.459428	     140.914841
	 D(2,17,18,23)    =        -1.737450	     -99.548568
	 D(3,2,1,19)      =         2.100956	     120.375901
	 D(3,2,1,25)      =        -0.019558	      -1.120595
	 D(3,2,1,26)      =        -2.098070	    -120.210552
	 D(3,2,14,15)     =        -0.072653	      -4.162703
	 D(3,2,14,16)     =         2.457624	     140.811498
	 D(3,2,14,17)     =        -1.944837	    -111.430967
	 D(3,2,17,14)     =         1.903190	     109.044759
	 D(3,2,17,18)     =        -2.431542	    -139.317099
	 D(3,2,17,24)     =         0.046269	       2.651043
	 D(3,2,17,27)     =         2.408409	     137.991686
	 D(3,4,5,6)       =         0.001304	       0.074700
	 D(3,4,5,12)      =         3.135653	     179.659684
	 D(3,8,7,6)       =         0.004887	       0.280010
	 D(3,8,7,10)      =        -3.139052	    -179.854428
	 D(4,3,2,14)      =         2.408854	     138.017151
	 D(4,3,2,17)      =         1.168456	      66.947624
	 D(4,3,8,7)       =        -0.005315	      -0.304531
	 D(4,3,8,9)       =         3.132955	     179.505096
	 D(4,5,6,7)       =        -0.001796	      -0.102888
	 D(4,5,6,11)      =         3.136800	     179.725411
	 D(5,4,3,8)       =         0.002225	       0.127485
	 D(5,6,7,8)       =        -0.001268	      -0.072650
	 D(5,6,7,10)      =        -3.140510	    -179.937978
	 D(6,5,4,13)      =        -3.127697	    -179.203838
	 D(6,7,8,9)       =        -3.133351	    -179.527802
	 D(7,6,5,12)      =        -3.136135	    -179.687298
	 D(8,3,2,14)      =        -0.769280	     -44.076485
	 D(8,3,2,17)      =        -2.009677	    -115.146011
	 D(8,3,4,13)      =         3.131341	     179.412627
	 D(8,7,6,11)      =        -3.139863	    -179.900897
	 D(9,8,7,10)      =         0.005895	       0.337760
	 D(10,7,6,11)     =         0.004080	       0.233774
	 D(11,6,5,12)     =         0.002461	       0.141001
	 D(12,5,4,13)     =         0.006652	       0.381147
	 D(14,2,1,19)     =        -1.487484	     -85.226572
	 D(14,2,1,25)     =         2.675187	     153.276932
	 D(14,2,1,26)     =         0.596675	      34.186976
	 D(14,2,17,18)    =         1.948453	     111.638142
	 D(14,2,17,24)    =        -1.856921	    -106.393716
	 D(14,2,17,27)    =         0.505219	      28.946927
	 D(14,17,18,19)   =         1.468895	      84.161501
	 D(14,17,18,22)   =        -2.697521	    -154.556588
	 D(14,17,18,23)   =        -0.611214	     -35.019998
	 D(15,14,2,17)    =         1.872184	     107.268264
	 D(15,14,17,18)   =         2.726225	     156.201164
	 D(15,14,17,24)   =         0.029493	       1.689827
	 D(15,14,17,27)   =         1.648192	      94.434441
	 D(16,14,2,17)    =        -1.880724	    -107.757534
	 D(16,14,17,18)   =         0.212416	      12.170522
	 D(16,14,17,24)   =        -2.484316	    -142.340815
	 D(16,14,17,27)   =        -0.865617	     -49.596201
	 D(17,2,1,19)     =        -0.375127	     -21.493186
	 D(17,2,1,25)     =        -2.495641	    -142.989682
	 D(17,2,1,26)     =         1.709033	      97.920361
	 D(17,18,19,20)   =         1.451379	      83.157872
	 D(17,18,19,21)   =        -2.741271	    -157.063259
	 D(18,19,1,25)    =         2.693170	     154.307289
	 D(18,19,1,26)    =        -1.490910	     -85.422842
	 D(19,18,17,24)   =        -2.129570	    -122.015351
	 D(19,18,17,27)   =         2.576032	     147.595756
	 D(20,19,1,25)    =         0.667698	      38.256283
	 D(20,19,1,26)    =         2.766803	     158.526152
	 D(20,19,18,22)   =        -0.660621	     -37.850783
	 D(20,19,18,23)   =        -2.750604	    -157.597986
	 D(21,19,1,25)    =        -1.421454	     -81.443309
	 D(21,19,1,26)    =         0.677651	      38.826560
	 D(21,19,18,22)   =         1.429915	      81.928087
	 D(21,19,18,23)   =        -0.660068	     -37.819116
	 D(22,18,17,24)   =        -0.012801	      -0.733441
	 D(22,18,17,27)   =        -1.590385	     -91.122333
	 D(23,18,17,24)   =         2.073506	     118.803150
	 D(23,18,17,27)   =         0.495922	      28.414257

	Current energy   :      -465.0487496609

	Generating empirical Hessian (Schlegel '84) for each fragment.
	Taking PRFO optimization step.
	Maximizing along 1 lowest eigenvalue of Hessian.

 RFO min eigenvalues
 -0.115818 -0.000000 -0.000000 -0.000000 -0.000000 -0.000000 -0.000000 -0.000000
 -0.000000 -0.000000 -0.000000 -0.000000 -0.000000 -0.000000 -0.000000 -0.000000
 -0.000000 -0.000000 -0.000000 -0.000000 -0.000000 -0.000000 -0.000000 -0.000000
 -0.000000 -0.000000 -0.000000 -0.000000 -0.000000 -0.000000 -0.000000 -0.000000
 -0.000000 -0.000000 -0.000000 -0.000000 -0.000000 -0.000000 -0.000000 -0.000000
 -0.000000 -0.000000 -0.000000 -0.000000 -0.000000 -0.000000 -0.000000 -0.000000
 -0.000000 -0.000000 -0.000000 -0.000000 -0.000000 -0.000000 -0.000000 -0.000000
 -0.000000 -0.000000 -0.000000  0.000000  0.000000  0.000000  0.000000  0.000000
  0.000000  0.000000  0.000000  0.000000  0.000000  0.000000  0.000000  0.000000
  0.000000  0.000000  0.000000  0.000000  0.000000  0.000000  0.000000  0.000000
  0.000000  0.000000  0.000000  0.000000  0.000000  0.000000  0.000000  0.000000
  0.000000  0.000000  0.000000  0.000000  0.000000  0.000000  0.000000  0.000000
  0.000000  0.000000  0.000000  0.000000  0.000000  0.000000  0.000000  0.000000
  0.000000  0.000000  0.000000  0.000000  0.000000  0.000000  0.000000  0.003293
  0.005866  0.006306  0.012469  0.014107  0.016248  0.016991  0.017273  0.017342
  0.017497  0.017535  0.017591  0.017607  0.017664  0.018500  0.020788  0.023956
  0.029185  0.031209  0.040633  0.045115  0.049875  0.052582  0.057728  0.058538
  0.065253  0.069855  0.070031  0.072695  0.080757  0.082054  0.082928  0.088481
  0.102758  0.107700  0.112896  0.159991  0.159997  0.159999  0.160000  0.160028
  0.169920  0.202740  0.203875  0.219999  0.220002  0.234972  0.249850  0.264428
  0.269132  0.276827  0.291796  0.301958  0.331242  0.331436  0.331679  0.332247
  0.333601  0.335127  0.335844  0.341831  0.342238  0.342738  0.343069  0.343296
  0.343466  0.343788  0.345469  0.406954  0.407829  0.442473  0.446168  0.448706
  0.451832  0.866967

 RFO max eigenvalues
 -0.000000  0.000000
	|RFO target step|  :        0.4563764736
	RFO gradient       :       -0.2537765887
	RFO hessian        :        0.4492640789
	Projected Delta(E) :       -0.0571319962

	Back-transformation to cartesian coordinates...
	Could not converge backtransformation.
	Using first guess instead.

	--- Internal Coordinate Step in ANG or DEG, aJ/ANG or AJ/DEG ---
	 ---------------------------------------------------------------------------
	   Coordinate                Previous        Force       Change         New 
	   ----------                --------       ------       ------       ------
	    1 R(1,2)          =      1.540368    -0.030096    -0.006227     1.534142
	    2 R(1,19)         =      1.541497    -0.019908    -0.007750     1.533746
	    3 R(1,25)         =      1.101447    -0.102664    -0.014595     1.086852
	    4 R(1,26)         =      1.105052    -0.093622    -0.013436     1.091615
	    5 R(2,3)          =      1.493061    -0.138495    -0.019807     1.473254
	    6 R(2,14)         =      1.513864    -0.121015    -0.029879     1.483985
	    7 R(2,17)         =      1.531517     0.056650     0.014017     1.545534
	    8 R(3,4)          =      1.410776    -0.134200    -0.015396     1.395380
	    9 R(3,8)          =      1.408159    -0.139621    -0.016008     1.392151
	   10 R(4,5)          =      1.402754    -0.150802    -0.017055     1.385699
	   11 R(4,13)         =      1.095590    -0.089893    -0.012617     1.082973
	   12 R(5,6)          =      1.405485    -0.120389    -0.013751     1.391734
	   13 R(5,12)         =      1.094416    -0.102957    -0.014403     1.080013
	   14 R(6,7)          =      1.404001    -0.122340    -0.013887     1.390114
	   15 R(6,11)         =      1.094033    -0.103752    -0.014502     1.079532
	   16 R(7,8)          =      1.404592    -0.149712    -0.017016     1.387576
	   17 R(7,10)         =      1.094422    -0.104017    -0.014549     1.079873
	   18 R(8,9)          =      1.094786    -0.089916    -0.012568     1.082218
	   19 R(14,15)        =      1.093684    -0.088875    -0.012105     1.081579
	   20 R(14,16)        =      1.095255    -0.091013    -0.012681     1.082574
	   21 R(14,17)        =      1.516364     0.197928     0.041794     1.558158
	   22 R(17,18)        =      1.528565     0.255531     0.043648     1.572213
	   23 R(17,24)        =      1.094085    -0.064765    -0.008695     1.085389
	   24 R(17,27)        =      0.879286     2.344014     0.170245     1.049531
	   25 R(18,19)        =      1.542578    -0.076139    -0.012245     1.530333
	   26 R(18,22)        =      1.101604    -0.098847    -0.013959     1.087646
	   27 R(18,23)        =      1.104820    -0.081819    -0.011627     1.093193
	   28 R(19,20)        =      1.104562    -0.093277    -0.013208     1.091355
	   29 R(19,21)        =      1.103224    -0.104458    -0.014921     1.088303
	   30 B(1,2,3)        =    118.763664     0.000438     0.614332   119.377995
	   31 B(1,2,14)       =    115.585685     0.000173     0.975479   116.561164
	   32 B(1,2,17)       =    106.277162    -0.000226    -0.184126   106.093037
	   33 B(1,19,18)      =    104.691617     0.000251     0.395543   105.087159
	   34 B(1,19,20)      =    108.690913    -0.000023     0.159406   108.850319
	   35 B(1,19,21)      =    113.419580    -0.000010     0.077909   113.497489
	   36 B(2,1,19)       =    104.676198     0.000581     1.119576   105.795774
	   37 B(2,1,25)       =    110.963570    -0.000331    -0.886647   110.076923
	   38 B(2,1,26)       =    110.530986    -0.000159    -0.309354   110.221632
	   39 B(2,3,4)        =    119.888038    -0.000073    -0.161701   119.726337
	   40 B(2,3,8)        =    121.458574    -0.000430    -0.909707   120.548867
	   41 B(2,14,15)      =    117.415782     0.000100     0.336175   117.751957
	   42 B(2,14,16)      =    117.862942    -0.000158    -0.256035   117.606906
	   43 B(2,14,17)      =     60.717500     0.000065     0.291597    61.009097
	   44 B(2,17,14)      =     59.560564    -0.000910    -2.434927    57.125637
	   45 B(2,17,18)      =    108.227717    -0.000283    -1.172185   107.055532
	   46 B(2,17,24)      =    119.266883     0.000174    -0.064241   119.202642
	   47 B(2,17,27)      =    130.586071    -0.000652    -1.775927   128.810144
	   48 B(3,2,14)       =    120.345328    -0.000616    -1.510778   118.834549
	   49 B(3,2,17)       =    121.805252    -0.000562    -1.652084   120.153168
	   50 B(3,4,5)        =    120.809467    -0.000284    -0.622003   120.187464
	   51 B(3,4,13)       =    119.129487     0.000268     0.657663   119.787150
	   52 B(3,8,7)        =    120.758819    -0.000307    -0.678846   120.079974
	   53 B(3,8,9)        =    119.142292     0.000267     0.653041   119.795334
	   54 B(4,3,8)        =    118.621159     0.000501     1.065291   119.686450
	   55 B(4,5,6)        =    120.048921    -0.000047    -0.092421   119.956500
	   56 B(4,5,12)       =    119.906259    -0.000017    -0.065339   119.840920
	   57 B(5,4,13)       =    120.057181     0.000017    -0.034792   120.022389
	   58 B(5,6,7)        =    119.650243     0.000151     0.348736   119.998979
	   59 B(5,6,11)       =    120.159915    -0.000074    -0.171600   119.988315
	   60 B(6,5,12)       =    120.043517     0.000064     0.158307   120.201824
	   61 B(6,7,8)        =    120.110679    -0.000014    -0.020304   120.090375
	   62 B(6,7,10)       =    120.030779     0.000061     0.159884   120.190663
	   63 B(7,6,11)       =    120.189618    -0.000077    -0.177009   120.012609
	   64 B(7,8,9)        =    120.098614     0.000040     0.024523   120.123137
	   65 B(8,7,10)       =    119.858405    -0.000048    -0.139543   119.718863
	   66 B(14,2,17)      =     59.721936     0.000845     2.143330    61.865266
	   67 B(14,17,18)     =    117.415187     0.000163     0.969756   118.384943
	   68 B(14,17,24)     =    117.384025     0.000224     0.530392   117.914416
	   69 B(14,17,27)     =     75.915786     0.000146     0.270716    76.186502
	   70 B(15,14,16)     =    115.306264     0.000269     0.963666   116.269929
	   71 B(15,14,17)     =    117.067911    -0.000188    -0.944677   116.123234
	   72 B(16,14,17)     =    117.630648    -0.000241    -0.965119   116.665529
	   73 B(17,18,19)     =    104.236043    -0.000332    -0.270626   103.965417
	   74 B(17,18,22)     =    111.713517    -0.000088    -0.611224   111.102293
	   75 B(17,18,23)     =    110.837597     0.000073    -0.099446   110.738151
	   76 B(18,17,24)     =    119.981893     0.000067     0.200029   120.181922
	   77 B(18,17,27)     =     72.826571     0.000697     3.076346    75.902917
	   78 B(18,19,20)     =    108.731493    -0.000068    -0.297170   108.434324
	   79 B(18,19,21)     =    113.499740    -0.000236    -0.557001   112.942739
	   80 B(19,1,25)      =    112.414409    -0.000350    -0.962642   111.451768
	   81 B(19,1,26)      =    110.858094     0.000102     0.730798   111.588891
	   82 B(19,18,22)     =    112.123910     0.000461     1.105246   113.229156
	   83 B(19,18,23)     =    110.745342    -0.000115    -0.402301   110.343041
	   84 B(20,19,21)     =    107.655190     0.000087     0.219632   107.874822
	   85 B(22,18,23)     =    107.243849    -0.000001     0.249319   107.493167
	   86 B(24,17,27)     =     98.810603     0.000126     0.732514    99.543117
	   87 B(25,1,26)      =    107.438837     0.000149     0.284672   107.723509
	   88 D(1,2,3,4)      =    -68.830845     0.000054     0.955086   -67.875759
	   89 D(1,2,3,8)      =    109.075519     0.000049     0.789495   109.865014
	   90 D(1,2,14,15)    =   -158.126276    -0.000058    -0.952290  -159.078566
	   91 D(1,2,14,16)    =    -13.152074     0.000044     1.165258   -11.986816
	   92 D(1,2,14,17)    =     94.605460    -0.000002     0.219466    94.824926
	   93 D(1,2,17,14)    =   -110.516925    -0.000091    -1.413288  -111.930213
	   94 D(1,2,17,18)    =      1.121217    -0.000040     0.139614     1.260831
	   95 D(1,2,17,24)    =    143.089359    -0.000050    -1.120950   141.968409
	   96 D(1,2,17,27)    =    -81.569998    -0.000167    -2.569289   -84.139287
	   97 D(1,19,18,17)   =    -32.864999     0.000007    -0.003053   -32.868052
	   98 D(1,19,18,22)   =   -153.873654     0.000022     0.310733  -153.562920
	   99 D(1,19,18,23)   =     86.379143    -0.000031    -0.472936    85.906208
	  100 D(2,1,19,18)    =     33.770540     0.000055     0.675220    34.445761
	  101 D(2,1,19,20)    =    -82.280465     0.000046     0.743245   -81.537219
	  102 D(2,1,19,21)    =    158.019943     0.000026     0.304414   158.324357
	  103 D(2,3,4,5)      =    178.092997    -0.000009    -0.196027   177.896970
	  104 D(2,3,4,13)     =     -2.621861    -0.000005    -0.110813    -2.732675
	  105 D(2,3,8,7)      =   -178.236678     0.000012     0.300930  -177.935748
	  106 D(2,3,8,9)      =      1.572949     0.000002     0.038128     1.611076
	  107 D(2,14,17,18)   =    -95.964306     0.000197     3.229429   -92.734877
	  108 D(2,14,17,24)   =    109.524357    -0.000046    -1.162528   108.361829
	  109 D(2,14,17,27)   =   -157.731029    -0.000007    -0.298262  -158.029291
	  110 D(2,17,14,15)   =   -107.834530    -0.000051    -0.900181  -108.734711
	  111 D(2,17,14,16)   =    108.134828    -0.000015     0.200273   108.335101
	  112 D(2,17,18,19)   =     19.632931     0.000022    -0.135656    19.497275
	  113 D(2,17,18,22)   =    140.914841     0.000092     0.696649   141.611491
	  114 D(2,17,18,23)   =    -99.548568     0.000089     0.542681   -99.005887
	  115 D(3,2,1,19)     =    120.375901    -0.000124    -2.391589   117.984312
	  116 D(3,2,1,25)     =     -1.120595    -0.000068    -1.429434    -2.550030
	  117 D(3,2,1,26)     =   -120.210552    -0.000038    -1.027581  -121.238133
	  118 D(3,2,14,15)    =     -4.162703    -0.000032    -0.586203    -4.748907
	  119 D(3,2,14,16)    =    140.811498     0.000070     1.531345   142.342844
	  120 D(3,2,14,17)    =   -111.430967     0.000024     0.585553  -110.845414
	  121 D(3,2,17,14)    =    109.044759    -0.000036    -0.269736   108.775023
	  122 D(3,2,17,18)    =   -139.317099     0.000015     1.283166  -138.033933
	  123 D(3,2,17,24)    =      2.651043     0.000005     0.022602     2.673645
	  124 D(3,2,17,27)    =    137.991686    -0.000112    -1.425737   136.565950
	  125 D(3,4,5,6)      =      0.074700    -0.000003    -0.079559    -0.004860
	  126 D(3,4,5,12)     =    179.659684     0.000001     0.019911   179.679595
	  127 D(3,8,7,6)      =      0.280010    -0.000006    -0.159811     0.120198
	  128 D(3,8,7,10)     =   -179.854428    -0.000006    -0.139830  -179.994258
	  129 D(4,3,2,14)     =    138.017151     0.000046     0.508283   138.525434
	  130 D(4,3,2,17)     =     66.947624    -0.000079    -0.802257    66.145368
	  131 D(4,3,8,7)      =     -0.304531     0.000004     0.110454    -0.194078
	  132 D(4,3,8,9)      =    179.505096    -0.000006    -0.152349   179.352747
	  133 D(4,5,6,7)      =     -0.102888     0.000001     0.033031    -0.069857
	  134 D(4,5,6,11)     =    179.725411     0.000004     0.092203   179.817614
	  135 D(5,4,3,8)      =      0.127485     0.000001     0.009060     0.136545
	  136 D(5,6,7,8)      =     -0.072650     0.000003     0.084887     0.012237
	  137 D(5,6,7,10)     =   -179.937978     0.000003     0.065217  -179.872761
	  138 D(6,5,4,13)     =   -179.203838    -0.000007    -0.169889  -179.373727
	  139 D(6,7,8,9)      =   -179.527802     0.000004     0.102672  -179.425130
	  140 D(7,6,5,12)     =   -179.687298    -0.000003    -0.065863  -179.753161
	  141 D(8,3,2,14)     =    -44.076485     0.000040     0.342692   -43.733792
	  142 D(8,3,2,17)     =   -115.146011    -0.000084    -0.967848  -116.113859
	  143 D(8,3,4,13)     =    179.412627     0.000004     0.094274   179.506901
	  144 D(8,7,6,11)     =   -179.900897     0.000001     0.025691  -179.875206
	  145 D(9,8,7,10)     =      0.337760     0.000005     0.122654     0.460414
	  146 D(10,7,6,11)    =      0.233774     0.000000     0.006021     0.239795
	  147 D(11,6,5,12)    =      0.141001    -0.000000    -0.006691     0.134310
	  148 D(12,5,4,13)    =      0.381147    -0.000003    -0.070419     0.310728
	  149 D(14,2,1,19)    =    -85.226572    -0.000165    -2.605350   -87.831922
	  150 D(14,2,1,25)    =    153.276932    -0.000108    -1.643196   151.633737
	  151 D(14,2,1,26)    =     34.186976    -0.000079    -1.241342    32.945634
	  152 D(14,2,17,18)   =    111.638142     0.000051     1.552902   113.191044
	  153 D(14,2,17,24)   =   -106.393716     0.000040     0.292338  -106.101378
	  154 D(14,2,17,27)   =     28.946927    -0.000076    -1.156001    27.790926
	  155 D(14,17,18,19)  =     84.161501    -0.000237    -3.322249    80.839252
	  156 D(14,17,18,22)  =   -154.556588    -0.000168    -2.489944  -157.046532
	  157 D(14,17,18,23)  =    -35.019998    -0.000170    -2.643912   -37.663910
	  158 D(15,14,2,17)   =    107.268264    -0.000056    -1.171756   106.096508
	  159 D(15,14,17,18)  =    156.201164     0.000146     2.329248   158.530412
	  160 D(15,14,17,24)  =      1.689827    -0.000097    -2.062709    -0.372882
	  161 D(15,14,17,27)  =     94.434441    -0.000059    -1.198443    93.235998
	  162 D(16,14,2,17)   =   -107.757534     0.000046     0.945792  -106.811742
	  163 D(16,14,17,18)  =     12.170522     0.000182     3.429702    15.600224
	  164 D(16,14,17,24)  =   -142.340815    -0.000061    -0.962255  -143.303070
	  165 D(16,14,17,27)  =    -49.596201    -0.000022    -0.097989   -49.694190
	  166 D(17,2,1,19)    =    -21.493186     0.000034    -0.196119   -21.689305
	  167 D(17,2,1,25)    =   -142.989682     0.000091     0.766036  -142.223647
	  168 D(17,2,1,26)    =     97.920361     0.000120     1.167889    99.088250
	  169 D(17,18,19,20)  =     83.157872     0.000023     0.243198    83.401069
	  170 D(17,18,19,21)  =   -157.063259     0.000002    -0.035510  -157.098769
	  171 D(18,19,1,25)   =    154.307289     0.000003    -0.227023   154.080266
	  172 D(18,19,1,26)   =    -85.422842     0.000008    -0.016323   -85.439165
	  173 D(19,18,17,24)  =   -122.015351     0.000022     1.265736  -120.749615
	  174 D(19,18,17,27)  =    147.595756    -0.000099    -1.308372   146.287384
	  175 D(20,19,1,25)   =     38.256283    -0.000005    -0.158998    38.097286
	  176 D(20,19,1,26)   =    158.526152    -0.000000     0.051702   158.577855
	  177 D(20,19,18,22)  =    -37.850783     0.000038     0.556984   -37.293799
	  178 D(20,19,18,23)  =   -157.597986    -0.000015    -0.226685  -157.824671
	  179 D(21,19,1,25)   =    -81.443309    -0.000025    -0.597829   -82.041138
	  180 D(21,19,1,26)   =     38.826560    -0.000020    -0.387129    38.439431
	  181 D(21,19,18,22)  =     81.928087     0.000017     0.278276    82.206363
	  182 D(21,19,18,23)  =    -37.819116    -0.000035    -0.505393   -38.324509
	  183 D(22,18,17,24)  =     -0.733441     0.000091     2.098042     1.364601
	  184 D(22,18,17,27)  =    -91.122333    -0.000030    -0.476066   -91.598400
	  185 D(23,18,17,24)  =    118.803150     0.000089     1.944073   120.747223
	  186 D(23,18,17,27)  =     28.414257    -0.000032    -0.630035    27.784222
	 ---------------------------------------------------------------------------
	Successfully symmetrized geometry.

  ==> Convergence Check <==

  Measures of convergence in internal coordinates in au.
  Criteria marked as inactive (o), active & met (*), and active & unmet ( ).
  --------------------------------------------------------------------------------------------- ~
   Step     Total Energy     Delta E     MAX Force     RMS Force      MAX Disp      RMS Disp    ~
  --------------------------------------------------------------------------------------------- ~
    Convergence Criteria    1.00e-06 *    3.00e-04 *             o    1.20e-03 *             o  ~
  --------------------------------------------------------------------------------------------- ~
      1    -465.04874966   -4.65e+02      2.85e-01      2.19e-02 o    3.22e-01      3.19e-02 o  ~
  ---------------------------------------------------------------------------------------------

	Writing optimization data to binary file.
	Structure for next step:
	Cartesian Geometry (in Angstrom)
	    C     1.5359042463   1.3220747593   0.5264434675
	    C     0.6950511645   0.4552684425  -0.4197087695
	    C    -0.6542123563   0.0328804937  -0.0055192756
	    C    -0.8037409546  -0.8693492327   1.0483824743
	    C    -2.0692794923  -1.2396450873   1.4743577108
	    C    -3.1950991522  -0.7107463760   0.8500831505
	    C    -3.0495895207   0.1895000477  -0.1991069456
	    C    -1.7827939293   0.5618746606  -0.6256438032
	    H    -1.6689163318   1.2697872558  -1.4362524853
	    H    -3.9210122515   0.6033628186  -0.6843544705
	    H    -4.1812503819  -1.0011299186   1.1795856421
	    H    -2.1785040911  -1.9423604574   2.2871854324
	    H     0.0730567268  -1.2880073862   1.5266938046
	    C     0.9958156229   0.5703053501  -1.8683352365
	    H     0.2304239189   0.2621502149  -2.5676415293
	    H     1.6340857710   1.3853497484  -2.1850066421
	    C     1.6709212432  -0.5672378091  -1.0448763399
	    C     3.0868596901  -0.2964991992  -0.4174422900
	    C     2.7808950625   0.4903262439   0.8589635439
	    H     2.5303221844  -0.2187992587   1.6497918344
	    H     3.6234933991   1.0881705098   1.2010360345
	    H     3.6169579030  -1.2276753609  -0.2306795087
	    H     3.7022543043   0.3018726441  -1.0944287362
	    H     1.3346081956  -1.5852585807  -1.2139837010
	    H     0.9657665487   1.5591979775   1.4208495587
	    H     1.7997351323   2.2636360145   0.0411806858
	    H     2.3010709998  -0.4518030969  -1.8762012713
			--------------------------
			 OPTKING Finished Execution 
			--------------------------

    Structure for next step:
    Molecular point group: c1
    Full point group: C1

    Geometry (in Angstrom), charge = 1, multiplicity = 1:

    C            1.532962758962     1.320242843973     0.525604869038
    C            0.692109673808     0.453436523709    -0.420547371635
    C           -0.657153852251     0.031048573313    -0.006357876099
    C           -0.806682451144    -0.871181156638     1.047543877861
    C           -2.072220993806    -1.241477012699     1.473519116103
    C           -3.198040658121    -0.712578299318     0.849244553328
    C           -3.052531026057     0.187668127852    -0.199945546878
    C           -1.785735429691     0.560042742221    -0.626482406129
    H           -1.671857831701     1.267955340255    -1.437091091471
    H           -3.923953760279     0.601530900377    -0.685193073687
    H           -4.184191891729    -1.002961843132     1.178747046183
    H           -2.181445593085    -1.944192385583     2.286346840824
    H            0.070115233690    -1.289839311796     1.525855210125
    C            0.992874133461     0.568473431793    -1.869173844331
    H            0.227482426415     0.260318295324    -2.568480139955
    H            1.631144283997     1.383517833296    -2.185845251248
    C            1.667979756362    -0.569069731874    -1.045714944498
    C            3.083918208883    -0.298331120880    -0.418280892150
    C            2.777953580037     0.488494325316     0.858124946725
    H            2.527380700928    -0.220631180123     1.648953240320
    H            3.620551919948     1.086338593498     1.200197438684
    H            3.614016423865    -1.229507286291    -0.231518110117
    H            3.699312825491     0.300040724763    -1.095267340987
    H            1.331666707491    -1.587090507485    -1.214822306279
    H            0.962825059118     1.557366063049     1.420010963802
    H            1.796793645993     2.261804102830     0.040342085435
    H            2.298129515474    -0.453635019188    -1.877039879196


Scratch directory: /tmp/
gradient() will perform analytic gradient computation.

*** tstart() called on skystd03.palmetto.clemson.edu
*** at Thu Nov 25 03:26:07 2021

   => Loading Basis Set <=

    Name: CC-PVTZ
    Role: ORBITAL
    Keyword: BASIS
    atoms 1-8, 14, 17-19     entry C          line   186 file /home/maxbuskirk/.conda/envs/psifour/share/psi4/basis/cc-pvtz.gbs 
    atoms 9-13, 15-16, 20-27 entry H          line    23 file /home/maxbuskirk/.conda/envs/psifour/share/psi4/basis/cc-pvtz.gbs 


         ---------------------------------------------------------
                                   SCF
               by Justin Turney, Rob Parrish, Andy Simmonett
                          and Daniel G. A. Smith
                              RHF Reference
                        1 Threads,  30517 MiB Core
         ---------------------------------------------------------

  ==> Geometry <==

    Molecular point group: c1
    Full point group: C1

    Geometry (in Angstrom), charge = 1, multiplicity = 1:

       Center              X                  Y                   Z               Mass       
    ------------   -----------------  -----------------  -----------------  -----------------
         C            1.532962758962     1.320242843973     0.525604869038    12.000000000000
         C            0.692109673808     0.453436523709    -0.420547371635    12.000000000000
         C           -0.657153852251     0.031048573313    -0.006357876099    12.000000000000
         C           -0.806682451144    -0.871181156638     1.047543877861    12.000000000000
         C           -2.072220993806    -1.241477012699     1.473519116103    12.000000000000
         C           -3.198040658121    -0.712578299318     0.849244553328    12.000000000000
         C           -3.052531026057     0.187668127852    -0.199945546878    12.000000000000
         C           -1.785735429691     0.560042742221    -0.626482406129    12.000000000000
         H           -1.671857831701     1.267955340255    -1.437091091471     1.007825032230
         H           -3.923953760279     0.601530900377    -0.685193073687     1.007825032230
         H           -4.184191891729    -1.002961843132     1.178747046183     1.007825032230
         H           -2.181445593085    -1.944192385583     2.286346840824     1.007825032230
         H            0.070115233690    -1.289839311796     1.525855210125     1.007825032230
         C            0.992874133461     0.568473431793    -1.869173844331    12.000000000000
         H            0.227482426415     0.260318295324    -2.568480139955     1.007825032230
         H            1.631144283997     1.383517833296    -2.185845251248     1.007825032230
         C            1.667979756362    -0.569069731874    -1.045714944498    12.000000000000
         C            3.083918208883    -0.298331120880    -0.418280892150    12.000000000000
         C            2.777953580037     0.488494325316     0.858124946725    12.000000000000
         H            2.527380700928    -0.220631180123     1.648953240320     1.007825032230
         H            3.620551919948     1.086338593498     1.200197438684     1.007825032230
         H            3.614016423865    -1.229507286291    -0.231518110117     1.007825032230
         H            3.699312825491     0.300040724763    -1.095267340987     1.007825032230
         H            1.331666707491    -1.587090507485    -1.214822306279     1.007825032230
         H            0.962825059118     1.557366063049     1.420010963802     1.007825032230
         H            1.796793645993     2.261804102830     0.040342085435     1.007825032230
         H            2.298129515474    -0.453635019188    -1.877039879196     1.007825032230

  Running in c1 symmetry.

  Rotational constants: A =      0.07351  B =      0.02049  C =      0.01852 [cm^-1]
  Rotational constants: A =   2203.69247  B =    614.13825  C =    555.08637 [MHz]
  Nuclear repulsion =  687.832274714121695

  Charge       = 1
  Multiplicity = 1
  Electrons    = 86
  Nalpha       = 43
  Nbeta        = 43

  ==> Algorithm <==

  SCF Algorithm Type is DF.
  DIIS enabled.
  MOM disabled.
  Fractional occupation disabled.
  Guess Type is READ.
  Energy threshold   = 1.00e-10
  Density threshold  = 1.00e-10
  Integral threshold = 1.00e-12

  ==> Primary Basis <==

  Basis Set: CC-PVTZ
    Blend: CC-PVTZ
    Number of shells: 210
    Number of basis functions: 570
    Number of Cartesian functions: 645
    Spherical Harmonics?: true
    Max angular momentum: 3

   => Loading Basis Set <=

    Name: (CC-PVTZ AUX)
    Role: JKFIT
    Keyword: DF_BASIS_SCF
    atoms 1-8, 14, 17-19     entry C          line   125 file /home/maxbuskirk/.conda/envs/psifour/share/psi4/basis/cc-pvtz-jkfit.gbs 
    atoms 9-13, 15-16, 20-27 entry H          line    51 file /home/maxbuskirk/.conda/envs/psifour/share/psi4/basis/cc-pvtz-jkfit.gbs 

   => Loading Basis Set <=

    Name: CC-PVTZ
    Role: ORBITAL
    Keyword: BASIS
    atoms 1-8, 14, 17-19     entry C          line   186 file /home/maxbuskirk/.conda/envs/psifour/share/psi4/basis/cc-pvtz.gbs 
    atoms 9-13, 15-16, 20-27 entry H          line    23 file /home/maxbuskirk/.conda/envs/psifour/share/psi4/basis/cc-pvtz.gbs 

  Reading orbitals from file /tmp/1H.mol.3715668.180.npy, no projection.

  ==> Integral Setup <==

  DFHelper Memory: AOs need 2.932 GiB; user supplied 22.352 GiB. Using in-core AOs.

  ==> MemDFJK: Density-Fitted J/K Matrices <==

    J tasked:                   Yes
    K tasked:                   Yes
    wK tasked:                   No
    OpenMP threads:               1
    Memory [MiB]:             22888
    Algorithm:                 Core
    Schwarz Cutoff:           1E-12
    Mask sparsity (%):      15.7815
    Fitting Condition:        1E-10

   => Auxiliary Basis Set <=

  Basis Set: (CC-PVTZ AUX)
    Blend: CC-PVTZ-JKFIT
    Number of shells: 450
    Number of basis functions: 1398
    Number of Cartesian functions: 1677
    Spherical Harmonics?: true
    Max angular momentum: 4

  Minimum eigenvalue in the overlap matrix is 3.0316865394E-05.
  Reciprocal condition number of the overlap matrix is 2.9636058257E-06.
    Using symmetric orthogonalization.

  ==> Pre-Iterations <==

  SCF Guess: Orbitals guess was supplied from a previous computation.

   -------------------------------------------------------
    Irrep   Nso     Nmo     Nalpha   Nbeta   Ndocc  Nsocc
   -------------------------------------------------------
     A        570     570      43      43      43       0
   -------------------------------------------------------
    Total     570     570      43      43      43       0
   -------------------------------------------------------

  ==> Iterations <==

                           Total Energy        Delta E     RMS |[F,P]|

   @DF-RHF iter   0:  -462.97201116362771   -4.62972e+02   5.49277e-04 
   @DF-RHF iter   1:  -462.95921638358379    1.27948e-02   1.09631e-04 DIIS
   @DF-RHF iter   2:  -462.96104404839002   -1.82766e-03   5.67268e-05 DIIS
[...]
	  153 D(14,2,17,24)   =   -121.388719     0.000000     0.044636  -121.344083
	  154 D(14,2,17,27)   =     -0.306745     0.000000     0.097631    -0.209114
	  155 D(14,17,18,19)  =     57.745518     0.000000     0.008526    57.754043
	  156 D(14,17,18,22)  =    178.177432     0.000000     0.043323   178.220755
	  157 D(14,17,18,23)  =    -64.339878     0.000000     0.044604   -64.295275
	  158 D(15,14,2,17)   =    114.949216     0.000000     0.034865   114.984081
	  159 D(15,14,17,18)  =   -177.411051    -0.000000     0.023301  -177.387750
	  160 D(15,14,17,24)  =    -54.459430     0.000000     0.050926   -54.408504
	  161 D(15,14,17,27)  =     60.681999     0.000000     0.051357    60.733356
	  162 D(16,14,2,17)   =   -112.739527     0.000001     0.020896  -112.718631
	  163 D(16,14,17,18)  =     60.219149    -0.000001     0.006982    60.226131
	  164 D(16,14,17,24)  =   -176.829231    -0.000000     0.034607  -176.794623
	  165 D(16,14,17,27)  =    -61.687801    -0.000000     0.035038   -61.652763
	  166 D(17,2,1,19)    =    -32.768771     0.000000    -0.011388   -32.780159
	  167 D(17,2,1,25)    =   -147.735311    -0.000000    -0.020505  -147.755815
	  168 D(17,2,1,26)    =     79.884311     0.000000    -0.024222    79.860089
	  169 D(17,18,19,20)  =     63.704506    -0.000000    -0.076889    63.627617
	  170 D(17,18,19,21)  =   -173.953731    -0.000000    -0.066590  -174.020321
	  171 D(18,19,1,25)   =    177.426155    -0.000000     0.050994   177.477149
	  172 D(18,19,1,26)   =    -60.182783    -0.000000     0.052368   -60.130415
	  173 D(19,18,17,24)  =    -63.660919    -0.000000    -0.000761   -63.661679
	  174 D(19,18,17,27)  =    174.072550    -0.000000    -0.035813   174.036737
	  175 D(20,19,1,25)   =     54.459303    -0.000000     0.038109    54.497412
	  176 D(20,19,1,26)   =    176.850365    -0.000000     0.039482   176.889848
	  177 D(20,19,18,22)  =    -56.728337    -0.000000    -0.114516   -56.842853
	  178 D(20,19,18,23)  =   -174.211114    -0.000000    -0.115340  -174.326455
	  179 D(21,19,1,25)   =    -60.688604    -0.000000     0.037821   -60.650783
	  180 D(21,19,1,26)   =     61.702458    -0.000000     0.039194    61.741652
	  181 D(21,19,18,22)  =     65.613427    -0.000000    -0.104217    65.509210
	  182 D(21,19,18,23)  =    -51.869351    -0.000000    -0.105041   -51.974392
	  183 D(22,18,17,24)  =     56.770995     0.000000     0.034037    56.805032
	  184 D(22,18,17,27)  =    -65.495536    -0.000000    -0.001016   -65.496552
	  185 D(23,18,17,24)  =    174.253686     0.000000     0.035317   174.289003
	  186 D(23,18,17,27)  =     51.987154    -0.000000     0.000265    51.987419
	 ---------------------------------------------------------------------------
	Successfully symmetrized geometry.

  ==> Convergence Check <==

  Measures of convergence in internal coordinates in au.
  Criteria marked as inactive (o), active & met (*), and active & unmet ( ).
  ---------------------------------------------------------------------------------------------
   Step     Total Energy     Delta E     MAX Force     RMS Force      MAX Disp      RMS Disp   
  ---------------------------------------------------------------------------------------------
    Convergence Criteria    1.00e-06 *    3.00e-04 *             o    1.20e-03 *             o
  ---------------------------------------------------------------------------------------------
     44    -465.16813881   -7.07e-07 *    1.07e-04 *    1.70e-05 o    2.09e-03      6.01e-04 o  ~
  ---------------------------------------------------------------------------------------------


  **** Optimization is complete! (in 44 steps) ****

  ==> Optimization Summary <==

  Measures of convergence in internal coordinates in au.
  --------------------------------------------------------------------------------------------------------------- ~
   Step         Total Energy             Delta E       MAX Force       RMS Force        MAX Disp        RMS Disp  ~
  --------------------------------------------------------------------------------------------------------------- ~
      1    -465.048749660869   -465.048749660869      0.28451181      0.02189806      0.32171558      0.03191103  ~
      2    -465.115334416151     -0.066584755282      0.05325676      0.00498672      0.13804572      0.03662149  ~
      3    -465.132795445655     -0.017461029504      0.02152883      0.00257040      0.15793450      0.03673874  ~
      4    -465.143255269678     -0.010459824023      0.00912694      0.00145885      0.14405326      0.03553926  ~
      5    -465.148813970471     -0.005558700793      0.00583138      0.00105189      0.14088343      0.03658520  ~
      6    -465.152262945424     -0.003448974953      0.01081220      0.00117828      0.14911038      0.03658257  ~
      7    -465.155612439737     -0.003349494312      0.01322444      0.00135692      0.14902869      0.03655922  ~
      8    -465.159027353089     -0.003414913352      0.01363067      0.00140312      0.12940107      0.03391051  ~
      9    -465.162093801343     -0.003066448255      0.01072532      0.00132479      0.12193163      0.03626258  ~
     10    -465.165383750475     -0.003289949131      0.00783098      0.00126800      0.11756592      0.03286471  ~
     11    -465.168725934551     -0.003342184076      0.00739357      0.00134396      0.16948255      0.03667132  ~
     12    -465.165928674720      0.002797259831      0.00693428      0.00113223      0.08559804      0.02383427  ~
     13    -465.168513202566     -0.002584527846      0.00669292      0.00114887      0.18226030      0.03666007  ~
     14    -465.165630502258      0.002882700308      0.00878162      0.00160135      0.17807745      0.03664917  ~
     15    -465.164233082987      0.001397419272      0.00510871      0.00102527      0.16855535      0.03666270  ~
     16    -465.162162824723      0.002070258264      0.00422757      0.00087603      0.13457682      0.03665662  ~
     17    -465.160230142127      0.001932682596      0.00378874      0.00081658      0.13287899      0.03664934  ~
     18    -465.158353286463      0.001876855664      0.00362831      0.00077651      0.08369046      0.02583387  ~
     19    -465.160232036600     -0.001878750138      0.00361349      0.00076075      0.09406179      0.02943684  ~
     20    -465.162419676032     -0.002187639432      0.00373897      0.00080775      0.15122474      0.03664691  ~
     21    -465.160620459025      0.001799217007      0.00351100      0.00070071      0.20327695      0.03679434  ~
     22    -465.159796800446      0.000823658579      0.00564309      0.00118578      0.20302224      0.03666228  ~
     23    -465.161271417971     -0.001474617524      0.00424221      0.00089706      0.13265606      0.03665613  ~
     24    -465.162828924852     -0.001557506881      0.00362714      0.00082711      0.10426288      0.03666721  ~
     25    -465.165035765674     -0.002206840822      0.00245168      0.00065055      0.11239447      0.03666260  ~
     26    -465.166671844494     -0.001636078820      0.00287671      0.00054635      0.13527009      0.03634227  ~
     27    -465.167313429658     -0.000641585164      0.00231980      0.00049719      0.03867069      0.01098192  ~
     28    -465.167565074598     -0.000251644940      0.00179205      0.00029658      0.05286880      0.01029288  ~
     29    -465.167632261382     -0.000067186785      0.00126194      0.00021183      0.03680308      0.00709255  ~
     30    -465.167657646032     -0.000025384649      0.00131108      0.00019385      0.03921012      0.00906251  ~
     31    -465.167711366288     -0.000053720256      0.00103624      0.00019994      0.03168126      0.00927817  ~
     32    -465.167766923590     -0.000055557303      0.00110996      0.00021927      0.02706717      0.00857119  ~
     33    -465.167832969027     -0.000066045437      0.00070958      0.00020612      0.05045184      0.01212590  ~
     34    -465.167866034391     -0.000033065364      0.00083064      0.00023849      0.04089752      0.01145569  ~
     35    -465.167890149654     -0.000024115262      0.00096398      0.00025316      0.01812178      0.00465785  ~
     36    -465.167974499303     -0.000084349649      0.00068045      0.00016388      0.04102203      0.01167491  ~
     37    -465.168076979638     -0.000102480335      0.00069423      0.00013397      0.02500131      0.00817092  ~
     38    -465.168111330512     -0.000034350874      0.00106772      0.00014263      0.01489574      0.00504787  ~
     39    -465.168121867404     -0.000010536893      0.00099929      0.00013257      0.15270456      0.03666606  ~
     40    -465.167686085811      0.000435781594      0.00616540      0.00069441      0.10453305      0.02582879  ~
     41    -465.168107082651     -0.000420996840      0.00076085      0.00010685      0.03769861      0.00920620  ~
     42    -465.168136507151     -0.000029424500      0.00055079      0.00006325      0.00414251      0.00108303  ~
     43    -465.168138106818     -0.000001599667      0.00014374      0.00002351      0.00155487      0.00046882  ~
     44    -465.168138814210     -0.000000707392      0.00010746      0.00001701      0.00208818      0.00060051  ~
  --------------------------------------------------------------------------------------------------------------- ~

	Writing optimization data to binary file.
	Final energy is   -465.1681388142102
	Final (previous) structure:
	Cartesian Geometry (in Angstrom)
	    C     1.5704475091   1.2294956154   0.6157181428
	    C     0.6769197285   0.6794686415  -0.3598677835
	    C    -0.6489764345   0.2291807083   0.0290850224
	    C    -0.9330433611  -1.0367703704   0.5341336424
	    C    -2.2404310380  -1.3547022923   0.8719612673
	    C    -3.2544440913  -0.4232642109   0.7097042637
	    C    -2.9655015476   0.8372234984   0.2061110636
	    C    -1.6659260626   1.1734510286  -0.1374437897
	    H    -1.4482698282   2.1541149641  -0.5282709437
	    H    -3.7482550909   1.5643835056   0.0778229552
	    H    -4.2654161998  -0.6774944234   0.9740772069
	    H    -2.4604996145  -2.3331483821   1.2620150359
	    H    -0.1572913828  -1.7701394391   0.6657846882
	    C     1.1774760378   0.4072921379  -1.6744643930
	    H     0.4095789546   0.1626487735  -2.3958404607
	    H     1.8884391949   1.1403472752  -2.0371564994
	    C     2.0135107819  -0.9201266586  -1.3506204604
	    C     3.0539334571  -0.6274271893  -0.2984611580
	    C     2.4100091732  -0.0924494175   0.9560670288
	    H     1.7532250986  -0.8239018245   1.4157390205
	    H     3.1257267656   0.2305732227   1.7043741615
	    H     3.5935125823  -1.5418045644  -0.0630716511
	    H     3.7810642641   0.0855675772  -0.6792752182
	    H     1.3314435325  -1.7033852627  -1.0358386143
	    H     1.0818293366   1.5685132188   1.5191053455
	    H     2.2753520436   1.9474258577   0.2132025022
	    H     2.4367720239  -1.2107134752  -2.3062453996
	Saving final (previous) structure.
	Cleaning optimization helper files.
			--------------------------
			 OPTKING Finished Execution 
			--------------------------

    Final optimized geometry and variables:
    Molecular point group: c1
    Full point group: C1

    Geometry (in Angstrom), charge = 1, multiplicity = 1:

    C            1.570447515251     1.229495620204     0.615718145263
    C            0.676919731123     0.679468644173    -0.359867784915
    C           -0.648976437072     0.229180709247     0.029085022503
    C           -0.933043364756    -1.036770374514     0.534133644508
    C           -2.240431046813    -1.354702297585     0.871961270734
    C           -3.254444104067    -0.423264212565     0.709704266482
    C           -2.965501559257     0.837223501645     0.206111064365
    C           -1.665926069171     1.173451033172    -0.137443790220
    H           -1.448269833889     2.154114972545    -0.528270945762
    H           -3.748255105663     1.564383511737     0.077822955458
    H           -4.265416216536    -0.677494426102     0.974077210765
    H           -2.460499624149    -2.333148391275     1.262015040823
    H           -0.157291383407    -1.770139446056     0.665784690802
    C            1.177476042406     0.407292139460    -1.674464399570
    H            0.409578956173     0.162648774159    -2.395840470145
    H            1.888439202357     1.140347279659    -2.037156507380
    C            2.013510789851    -0.920126662209    -1.350620465675
    C            3.053933469065    -0.627427191732    -0.298461159161
    C            2.410009182670    -0.092449417892     0.956067032512
    H            1.753225105447    -0.823901827743     1.415739026035
    H            3.125726777917     0.230573223624     1.704374168158
    H            3.593512596422    -1.541804570432    -0.063071651302
    H            3.781064279007     0.085567577542    -0.679275220853
    H            1.331443537694    -1.703385269431    -1.035838618389
    H            1.081829340880     1.568513224940     1.519105351479
    H            2.275352052494     1.947425865403     0.213202503048
    H            2.436772033485    -1.210713479937    -2.306245408660

	Removing binary optimization data file.
	Cleaning optimization helper files.


Properties will be evaluated at   0.000000,   0.000000,   0.000000 [a0]
OEProp: No title given, name of density matrix used for the following properties is 'DF-MP2 relaxed density'
  Mulliken Charges: (a.u.)
   Center  Symbol    Alpha    Beta     Spin     Total
       1     C     3.12788  3.12788  0.00000 -0.25575
       2     C     2.92517  2.92517  0.00000  0.14966
       3     C     2.95351  2.95351  0.00000  0.09298
       4     C     3.09200  3.09200  0.00000 -0.18400
       5     C     3.06722  3.06722  0.00000 -0.13445
       6     C     3.07105  3.07105  0.00000 -0.14209
       7     C     3.05355  3.05355  0.00000 -0.10709
       8     C     3.08088  3.08088  0.00000 -0.16176
       9     H     0.41472  0.41472  0.00000  0.17056
      10     H     0.40532  0.40532  0.00000  0.18937
      11     H     0.40574  0.40574  0.00000  0.18853
      12     H     0.40723  0.40723  0.00000  0.18554
      13     H     0.41583  0.41583  0.00000  0.16834
      14     C     3.12780  3.12780  0.00000 -0.25560
      15     H     0.40081  0.40081  0.00000  0.19838
      16     H     0.40403  0.40403  0.00000  0.19194
      17     C     3.13832  3.13832  0.00000 -0.27665
      18     C     3.12820  3.12820  0.00000 -0.25640
      19     C     3.13837  3.13837  0.00000 -0.27674
      20     H     0.40768  0.40768  0.00000  0.18463
      21     H     0.39942  0.39942  0.00000  0.20115
      22     H     0.40308  0.40308  0.00000  0.19384
      23     H     0.42022  0.42022  0.00000  0.15957
      24     H     0.40775  0.40775  0.00000  0.18449
      25     H     0.40074  0.40074  0.00000  0.19852
      26     H     0.40403  0.40403  0.00000  0.19194
      27     H     0.39945  0.39945  0.00000  0.20110

   Total alpha = 43.00000, Total beta = 43.00000, Total charge =  1.00000

    Molecular point group: c1
    Full point group: C1

    Geometry (in Angstrom), charge = 1, multiplicity = 1:

       Center              X                  Y                   Z               Mass       
    ------------   -----------------  -----------------  -----------------  -----------------
         C            1.570447515251     1.229495620204     0.615718145263    12.000000000000
         C            0.676919731123     0.679468644173    -0.359867784915    12.000000000000
         C           -0.648976437072     0.229180709247     0.029085022503    12.000000000000
         C           -0.933043364756    -1.036770374514     0.534133644508    12.000000000000
         C           -2.240431046813    -1.354702297585     0.871961270734    12.000000000000
         C           -3.254444104067    -0.423264212565     0.709704266482    12.000000000000
         C           -2.965501559257     0.837223501645     0.206111064365    12.000000000000
         C           -1.665926069171     1.173451033172    -0.137443790220    12.000000000000
         H           -1.448269833889     2.154114972545    -0.528270945762     1.007825032230
         H           -3.748255105663     1.564383511737     0.077822955458     1.007825032230
         H           -4.265416216536    -0.677494426102     0.974077210765     1.007825032230
         H           -2.460499624149    -2.333148391275     1.262015040823     1.007825032230
         H           -0.157291383407    -1.770139446056     0.665784690802     1.007825032230
         C            1.177476042406     0.407292139460    -1.674464399570    12.000000000000
         H            0.409578956173     0.162648774159    -2.395840470145     1.007825032230
         H            1.888439202357     1.140347279659    -2.037156507380     1.007825032230
         C            2.013510789851    -0.920126662209    -1.350620465675    12.000000000000
         C            3.053933469065    -0.627427191732    -0.298461159161    12.000000000000
         C            2.410009182670    -0.092449417892     0.956067032512    12.000000000000
         H            1.753225105447    -0.823901827743     1.415739026035     1.007825032230
         H            3.125726777917     0.230573223624     1.704374168158     1.007825032230
         H            3.593512596422    -1.541804570432    -0.063071651302     1.007825032230
         H            3.781064279007     0.085567577542    -0.679275220853     1.007825032230
         H            1.331443537694    -1.703385269431    -1.035838618389     1.007825032230
         H            1.081829340880     1.568513224940     1.519105351479     1.007825032230
         H            2.275352052494     1.947425865403     0.213202503048     1.007825032230
         H            2.436772033485    -1.210713479937    -2.306245408660     1.007825032230



  Variable Map:
  ----------------------------------------------------------------------------
  "CURRENT CORRELATION ENERGY"           =>      -2.125516667915
  "CURRENT DIPOLE X"                     =>       3.350549321838
  "CURRENT DIPOLE Y"                     =>       0.849289391016
  "CURRENT DIPOLE Z"                     =>      -0.879009326424
  "CURRENT ENERGY"                       =>    -465.168138814210
  "CURRENT REFERENCE ENERGY"             =>    -463.042622146295
  "CUSTOM SCS-MP2 CORRELATION ENERGY"    =>      -2.114777691091
  "CUSTOM SCS-MP2 TOTAL ENERGY"          =>    -465.157399837386
  "HF TOTAL ENERGY"                      =>    -463.042622146295
  "MP2 CORRELATION ENERGY"               =>      -2.125516667915
  "MP2 DOUBLES ENERGY"                   =>      -2.125516667915
  "MP2 OPPOSITE-SPIN CORRELATION ENERGY" =>      -1.622621694368
  "MP2 SAME-SPIN CORRELATION ENERGY"     =>      -0.502894973547
  "MP2 SINGLES ENERGY"                   =>      -0.000000000000
  "MP2 TOTAL ENERGY"                     =>    -465.168138814210
  "NUCLEAR REPULSION ENERGY"             =>     684.274982525891
  "ONE-ELECTRON ENERGY"                  =>   -1968.348936074128
  "OPTIMIZATION ITERATIONS"              =>      44.000000000000
  "PCM POLARIZATION ENERGY"              =>       0.000000000000
  "PE ENERGY"                            =>       0.000000000000
  "SCF DIPOLE X"                         =>       3.350549321838
  "SCF DIPOLE Y"                         =>       0.849289391016
  "SCF DIPOLE Z"                         =>      -0.879009326424
  "SCF ITERATION ENERGY"                 =>    -463.042622146295
  "SCF ITERATIONS"                       =>      11.000000000000
  "SCF TOTAL ENERGY"                     =>    -463.042622146295
  "SCS-MP2 CORRELATION ENERGY"           =>      -2.114777691091
  "SCS-MP2 TOTAL ENERGY"                 =>    -465.157399837386
  "TWO-ELECTRON ENERGY"                  =>     821.031331401943



    Psi4 stopped on: Thursday, 25 November 2021 09:15AM
    Psi4 wall time for execution: 5:57:49.38

*** Psi4 exiting successfully. Buy a developer a beer!
