
    -----------------------------------------------------------------------
          Psi4: An Open-Source Ab Initio Electronic Structure Package
                               Psi4 1.4 release

                         Git: Rev {HEAD} 9485035 


    D. G. A. Smith, L. A. Burns, A. C. Simmonett, R. M. Parrish,
    M. C. Schieber, R. Galvelis, P. Kraus, H. Kruse, R. Di Remigio,
    A. Alenaizan, A. M. James, S. Lehtola, J. P. Misiewicz, M. Scheurer,
    R. A. Shaw, J. B. Schriber, Y. Xie, Z. L. Glick, D. A. Sirianni,
    J. S. O'Brien, J. M. Waldrop, A. Kumar, E. G. Hohenstein,
    B. P. Pritchard, B. R. Brooks, H. F. Schaefer III, A. Yu. Sokolov,
    K. Patkowski, A. E. DePrince III, U. Bozkaya, R. A. King,
    F. A. Evangelista, J. M. Turney, T. D. Crawford, C. D. Sherrill,
    J. Chem. Phys. 152(18) 184108 (2020). https://doi.org/10.1063/5.0006002

                            Additional Code Authors
    E. T. Seidl, C. L. Janssen, E. F. Valeev, M. L. Leininger,
    J. F. Gonthier, R. M. Richard, H. R. McAlexander, M. Saitow, X. Wang,
    P. Verma, and M. H. Lechner

             Previous Authors, Complete List of Code Contributors,
                       and Citations for Specific Modules
    https://github.com/psi4/psi4/blob/master/codemeta.json
    https://github.com/psi4/psi4/graphs/contributors
    http://psicode.org/psi4manual/master/introduction.html#citing-psifour

    -----------------------------------------------------------------------


    Psi4 started on: Saturday, 11 December 2021 05:32PM

    Process ID: 1703804
    Host:       skystd34.palmetto.clemson.edu
    PSIDATADIR: /home/maxbuskirk/.conda/envs/psifour/share/psi4
    Memory:     500.0 MiB
    Threads:    1
    
  ==> Input File <==

--------------------------------------------------------------------------
molecule mol {
0 1
 C     1.511290    -0.280966    -0.092593
 C    -0.000000     0.000000     0.000000
 C    -0.605968    -1.226439    -0.664954
 C     0.319060    -1.848819    -1.451355
 C     1.653820    -1.134973    -1.365322
 C    -2.027094    -1.583009    -0.507457
 C    -2.438238    -2.928025    -0.366876
 C    -3.794208    -3.253627    -0.211477
 C    -4.766046    -2.240264    -0.182231
 C    -4.369571    -0.897483    -0.299270
 C    -3.014139    -0.572542    -0.452922
 C     0.120138    -2.993149    -2.399423
 H    -2.715369     0.476287    -0.545440
 H    -5.118805    -0.100426    -0.268581
 O    -6.099328    -2.559996    -0.025611
 H    -4.091097    -4.301038    -0.099616
 H    -1.681648    -3.717845    -0.347819
 H     1.812305    -0.886836     0.778541
 H     2.127353     0.631886    -0.103726
 H     2.509857    -1.831293    -1.328975
 H     1.794964    -0.502471    -2.264944
 H    -0.944311    -3.224044    -2.552012
 H     0.568816    -2.749556    -3.378502
 H     0.625600    -3.906462    -2.037287
 H    -0.354002     0.144380     1.034324
 H    -0.267853     0.913064    -0.567140
 C    -6.863894    -1.387208    -0.028188
 H    -7.916027    -1.639518     0.095405
 H    -6.545927    -0.744791     0.791640
 H    -6.724450    -0.865053    -0.973614
}

set scf_type df
set basis cc-pVDZ
set reference rhf

mol.update_geometry()
mol.symmetrize(1e-3)

e, wfn = optimize('mp2', return_wfn=True)
oeprop(wfn, "MULLIKEN_CHARGES")
mol.print_out()
print_variables()
--------------------------------------------------------------------------

Scratch directory: /local_scratch/pbs.4129834.pbs02/
gradient() will perform analytic gradient computation.

*** tstart() called on skystd34.palmetto.clemson.edu
*** at Sat Dec 11 17:32:45 2021

   => Loading Basis Set <=

    Name: CC-PVDZ
    Role: ORBITAL
    Keyword: BASIS
    atoms 1-12, 27            entry C          line   138 file /home/maxbuskirk/.conda/envs/psifour/share/psi4/basis/cc-pvdz.gbs 
    atoms 13-14, 16-26, 28-30 entry H          line    22 file /home/maxbuskirk/.conda/envs/psifour/share/psi4/basis/cc-pvdz.gbs 
    atoms 15                  entry O          line   198 file /home/maxbuskirk/.conda/envs/psifour/share/psi4/basis/cc-pvdz.gbs 


         ---------------------------------------------------------
                                   SCF
               by Justin Turney, Rob Parrish, Andy Simmonett
                          and Daniel G. A. Smith
                              RHF Reference
                        1 Threads,    500 MiB Core
         ---------------------------------------------------------

  ==> Geometry <==

    Molecular point group: c1
    Full point group: C1

    Geometry (in Angstrom), charge = 0, multiplicity = 1:

       Center              X                  Y                   Z               Mass       
    ------------   -----------------  -----------------  -----------------  -----------------
         C            3.722577606396     1.354070256074     0.484348443354    12.000000000000
         C            2.211287606396     1.635036256074     0.576941443354    12.000000000000
         C            1.605319606396     0.408597256074    -0.088012556646    12.000000000000
         C            2.530347606396    -0.213782743926    -0.874413556646    12.000000000000
         C            3.865107606396     0.500063256074    -0.788380556646    12.000000000000
         C            0.184193606396     0.052027256074     0.069484443354    12.000000000000
         C           -0.226950393604    -1.292988743926     0.210065443354    12.000000000000
         C           -1.582920393604    -1.618590743926     0.365464443354    12.000000000000
         C           -2.554758393604    -0.605227743926     0.394710443354    12.000000000000
         C           -2.158283393604     0.737553256074     0.277671443354    12.000000000000
         C           -0.802851393604     1.062494256074     0.124019443354    12.000000000000
         C            2.331425606396    -1.358112743926    -1.822481556646    12.000000000000
         H           -0.504081393604     2.111323256074     0.031501443354     1.007825032230
         H           -2.907517393604     1.534610256074     0.308360443354     1.007825032230
         O           -3.888040393604    -0.924959743926     0.551330443354    15.994914619570
         H           -1.879809393604    -2.666001743926     0.477325443354     1.007825032230
         H            0.529639606396    -2.082808743926     0.229122443354     1.007825032230
         H            4.023592606396     0.748200256074     1.355482443354     1.007825032230
         H            4.338640606396     2.266922256074     0.473215443354     1.007825032230
         H            4.721144606396    -0.196256743926    -0.752033556646     1.007825032230
         H            4.006251606396     1.132565256074    -1.688002556646     1.007825032230
         H            1.266976606396    -1.589007743926    -1.975070556646     1.007825032230
         H            2.780103606396    -1.114519743926    -2.801560556646     1.007825032230
         H            2.836887606396    -2.271425743926    -1.460345556646     1.007825032230
         H            1.857285606396     1.779416256074     1.611265443354     1.007825032230
         H            1.943434606396     2.548100256074     0.009801443354     1.007825032230
         C           -4.652606393604     0.247828256074     0.548753443354    12.000000000000
         H           -5.704739393604    -0.004481743926     0.672346443354     1.007825032230
         H           -4.334639393604     0.890245256074     1.368581443354     1.007825032230
         H           -4.513162393604     0.769983256074    -0.396672556646     1.007825032230

  Running in c1 symmetry.

  Rotational constants: A =      0.06178  B =      0.01103  C =      0.00986 [cm^-1]
  Rotational constants: A =   1852.21399  B =    330.61175  C =    295.70262 [MHz]
  Nuclear repulsion =  846.802451655004802

  Charge       = 0
  Multiplicity = 1
  Electrons    = 102
  Nalpha       = 51
  Nbeta        = 51

  ==> Algorithm <==

  SCF Algorithm Type is DF.
  DIIS enabled.
  MOM disabled.
  Fractional occupation disabled.
  Guess Type is SAD.
  Energy threshold   = 1.00e-10
  Density threshold  = 1.00e-10
  Integral threshold = 1.00e-12

  ==> Primary Basis <==

  Basis Set: CC-PVDZ
    Blend: CC-PVDZ
    Number of shells: 132
    Number of basis functions: 276
    Number of Cartesian functions: 290
    Spherical Harmonics?: true
    Max angular momentum: 2

   => Loading Basis Set <=

    Name: (CC-PVDZ AUX)
    Role: JKFIT
    Keyword: DF_BASIS_SCF
    atoms 1-12, 27            entry C          line   121 file /home/maxbuskirk/.conda/envs/psifour/share/psi4/basis/cc-pvdz-jkfit.gbs 
    atoms 13-14, 16-26, 28-30 entry H          line    51 file /home/maxbuskirk/.conda/envs/psifour/share/psi4/basis/cc-pvdz-jkfit.gbs 
    atoms 15                  entry O          line   221 file /home/maxbuskirk/.conda/envs/psifour/share/psi4/basis/cc-pvdz-jkfit.gbs 

  ==> Integral Setup <==

  ==> DiskDFJK: Density-Fitted J/K Matrices <==

    J tasked:                  Yes
    K tasked:                  Yes
    wK tasked:                  No
    OpenMP threads:              1
    Integrals threads:           1
    Memory [MiB]:              375
    Algorithm:                Core
    Integral Cache:           NONE
    Schwarz Cutoff:          1E-12
    Fitting Condition:       1E-10

   => Auxiliary Basis Set <=

  Basis Set: (CC-PVDZ AUX)
    Blend: CC-PVDZ-JKFIT
    Number of shells: 480
    Number of basis functions: 1348
    Number of Cartesian functions: 1534
    Spherical Harmonics?: true
    Max angular momentum: 3

  Minimum eigenvalue in the overlap matrix is 3.3186865622E-04.
  Reciprocal condition number of the overlap matrix is 5.1403598435E-05.
    Using symmetric orthogonalization.

  ==> Pre-Iterations <==

  SCF Guess: Superposition of Atomic Densities via on-the-fly atomic UHF (no occupation information).

   -------------------------
    Irrep   Nso     Nmo    
   -------------------------
     A        276     276 
   -------------------------
    Total     276     276
   -------------------------

  ==> Iterations <==

                           Total Energy        Delta E     RMS |[F,P]|

   @DF-RHF iter SAD:  -575.79885043680076   -5.75799e+02   0.00000e+00 
   @DF-RHF iter   1:  -576.18253669897877   -3.83686e-01   2.27849e-03 DIIS
   @DF-RHF iter   2:  -576.42834681037311   -2.45810e-01   9.53508e-04 DIIS
   @DF-RHF iter   3:  -576.46635382111572   -3.80070e-02   2.70103e-04 DIIS
   @DF-RHF iter   4:  -576.47065410890764   -4.30029e-03   1.08143e-04 DIIS
   @DF-RHF iter   5:  -576.47119109008315   -5.36981e-04   2.17603e-05 DIIS
   @DF-RHF iter   6:  -576.47122127080979   -3.01807e-05   8.32285e-06 DIIS
   @DF-RHF iter   7:  -576.47122526596934   -3.99516e-06   2.19744e-06 DIIS
   @DF-RHF iter   8:  -576.47122577013420   -5.04165e-07   9.01819e-07 DIIS
   @DF-RHF iter   9:  -576.47122584669546   -7.65613e-08   3.41756e-07 DIIS
   @DF-RHF iter  10:  -576.47122586209582   -1.54004e-08   1.41243e-07 DIIS
   @DF-RHF iter  11:  -576.47122586553553   -3.43971e-09   6.74562e-08 DIIS
   @DF-RHF iter  12:  -576.47122586643582   -9.00286e-10   2.92125e-08 DIIS
   @DF-RHF iter  13:  -576.47122586662840   -1.92586e-10   1.14951e-08 DIIS
   @DF-RHF iter  14:  -576.47122586665137   -2.29647e-11   4.60022e-09 DIIS
   @DF-RHF iter  15:  -576.47122586665296   -1.59162e-12   1.62842e-09 DIIS
   @DF-RHF iter  16:  -576.47122586665398   -1.02318e-12   8.31741e-10 DIIS
   @DF-RHF iter  17:  -576.47122586665432   -3.41061e-13   3.45470e-10 DIIS
   @DF-RHF iter  18:  -576.47122586665444   -1.13687e-13   1.31785e-10 DIIS
   @DF-RHF iter  19:  -576.47122586665500   -5.68434e-13   6.02683e-11 DIIS
  Energy and wave function converged.


  ==> Post-Iterations <==

    Orbital Energies [Eh]
    ---------------------

    Doubly Occupied:                                                      

       1A    -20.585607     2A    -11.301472     3A    -11.282656  
       4A    -11.244535     5A    -11.244287     6A    -11.239416  
       7A    -11.237091     8A    -11.235618     9A    -11.231843  
      10A    -11.228255    11A    -11.227678    12A    -11.227087  
      13A    -11.226973    14A    -11.224705    15A     -1.414346  
      16A     -1.155766    17A     -1.125840    18A     -1.027626  
      19A     -1.017630    20A     -1.003815    21A     -0.958418  
      22A     -0.928711    23A     -0.897493    24A     -0.833758  
      25A     -0.805421    26A     -0.779159    27A     -0.724796  
      28A     -0.690748    29A     -0.661971    30A     -0.658539  
      31A     -0.641763    32A     -0.636306    33A     -0.624508  
      34A     -0.586954    35A     -0.579940    36A     -0.573048  
      37A     -0.563485    38A     -0.554240    39A     -0.539250  
      40A     -0.523197    41A     -0.514423    42A     -0.501657  
      43A     -0.482046    44A     -0.480423    45A     -0.476656  
      46A     -0.471006    47A     -0.459741    48A     -0.454689  
      49A     -0.350670    50A     -0.335233    51A     -0.279288  

    Virtual:                                                              

      52A      0.123807    53A      0.130722    54A      0.178738  
      55A      0.190179    56A      0.199945    57A      0.205136  
      58A      0.208065    59A      0.220175    60A      0.232192  
      61A      0.239717    62A      0.257561    63A      0.263244  
      64A      0.269364    65A      0.272929    66A      0.275218  
      67A      0.287000    68A      0.293311    69A      0.301173  
      70A      0.308889    71A      0.340782    72A      0.346643  
      73A      0.369571    74A      0.392752    75A      0.397929  
      76A      0.416607    77A      0.431551    78A      0.438896  
      79A      0.447941    80A      0.469393    81A      0.509167  
      82A      0.524943    83A      0.554341    84A      0.581704  
      85A      0.598539    86A      0.623037    87A      0.632061  
      88A      0.634960    89A      0.638589    90A      0.661808  
      91A      0.671511    92A      0.675677    93A      0.692813  
      94A      0.699571    95A      0.713037    96A      0.717564  
      97A      0.726305    98A      0.735604    99A      0.742891  
     100A      0.747652   101A      0.756594   102A      0.768793  
     103A      0.773887   104A      0.796382   105A      0.810639  
     106A      0.823009   107A      0.831957   108A      0.835799  
     109A      0.850276   110A      0.852030   111A      0.859266  
     112A      0.866203   113A      0.871095   114A      0.883872  
     115A      0.888679   116A      0.888819   117A      0.891327  
     118A      0.895978   119A      0.902837   120A      0.916972  
     121A      0.920490   122A      0.928946   123A      0.933180  
     124A      0.936558   125A      0.943906   126A      0.949555  
     127A      0.954402   128A      0.960183   129A      0.964073  
     130A      0.987335   131A      0.995639   132A      1.013208  
     133A      1.021981   134A      1.041376   135A      1.056782  
     136A      1.068636   137A      1.108092   138A      1.120292  
     139A      1.139585   140A      1.151310   141A      1.168434  
     142A      1.191334   143A      1.203884   144A      1.224728  
     145A      1.240049   146A      1.253430   147A      1.278763  
     148A      1.283795   149A      1.301673   150A      1.306583  
     151A      1.329491   152A      1.339758   153A      1.354478  
     154A      1.366071   155A      1.374613   156A      1.381422  
     157A      1.428056   158A      1.441115   159A      1.477071  
     160A      1.483704   161A      1.484896   162A      1.501749  
     163A      1.520374   164A      1.553670   165A      1.561299  
     166A      1.574306   167A      1.591641   168A      1.600414  
     169A      1.626325   170A      1.645700   171A      1.664690  
     172A      1.689185   173A      1.706649   174A      1.727270  
     175A      1.741201   176A      1.752865   177A      1.760639  
     178A      1.768095   179A      1.786523   180A      1.807616  
     181A      1.810074   182A      1.832838   183A      1.840831  
     184A      1.853124   185A      1.858893   186A      1.875293  
     187A      1.880386   188A      1.883499   189A      1.894343  
     190A      1.905324   191A      1.908491   192A      1.926216  
     193A      1.929322   194A      1.934253   195A      1.942648  
     196A      1.950867   197A      1.959249   198A      1.964532  
     199A      1.979980   200A      1.982739   201A      1.986899  
     202A      2.005178   203A      2.027003   204A      2.029839  
     205A      2.034553   206A      2.036924   207A      2.055477  
     208A      2.068678   209A      2.072836   210A      2.077699  
     211A      2.090019   212A      2.099502   213A      2.115024  
     214A      2.122562   215A      2.128604   216A      2.140876  
     217A      2.162240   218A      2.173722   219A      2.186519  
     220A      2.217912   221A      2.235160   222A      2.246768  
     223A      2.257187   224A      2.268566   225A      2.279446  
     226A      2.283564   227A      2.307317   228A      2.325373  
     229A      2.354639   230A      2.360685   231A      2.379934  
     232A      2.390601   233A      2.403754   234A      2.417841  
     235A      2.436757   236A      2.445622   237A      2.459392  
     238A      2.472177   239A      2.494329   240A      2.511862  
     241A      2.533962   242A      2.544507   243A      2.554958  
     244A      2.566651   245A      2.622553   246A      2.639829  
     247A      2.662950   248A      2.679771   249A      2.726158  
     250A      2.738830   251A      2.759197   252A      2.769105  
     253A      2.771229   254A      2.781310   255A      2.804235  
     256A      2.808076   257A      2.831467   258A      2.832724  
     259A      2.859803   260A      2.890961   261A      2.931250  
     262A      2.949635   263A      2.956921   264A      2.995624  
     265A      3.011839   266A      3.029344   267A      3.063915  
     268A      3.126194   269A      3.195453   270A      3.261604  
     271A      3.293056   272A      3.387465   273A      3.477893  
     274A      3.630621   275A      3.755877   276A      4.001401  

    Final Occupation by Irrep:
              A 
    DOCC [    51 ]

  @DF-RHF Final Energy:  -576.47122586665500

   => Energetics <=

    Nuclear Repulsion Energy =            846.8024516550048020
    One-Electron Energy =               -2462.4477899956150395
    Two-Electron Energy =                1039.1741124739551196
    Total Energy =                       -576.4712258666550042

Computation Completed


Properties will be evaluated at   0.000000,   0.000000,   0.000000 [a0]

Properties computed using the SCF density matrix

  Nuclear Dipole Moment: [e a0]
     X:     7.9123      Y:     3.6112      Z:    -2.3754

  Electronic Dipole Moment: [e a0]
     X:    -7.9142      Y:    -3.1013      Z:     2.2636

  Dipole Moment: [e a0]
     X:    -0.0019      Y:     0.5100      Z:    -0.1118     Total:     0.5221

  Dipole Moment: [D]
     X:    -0.0048      Y:     1.2962      Z:    -0.2841     Total:     1.3269


*** tstop() called on skystd34.palmetto.clemson.edu at Sat Dec 11 17:33:15 2021
Module time:
	user time   =      28.97 seconds =       0.48 minutes
	system time =       0.61 seconds =       0.01 minutes
	total time  =         30 seconds =       0.50 minutes
Total time:
	user time   =      28.97 seconds =       0.48 minutes
	system time =       0.61 seconds =       0.01 minutes
	total time  =         30 seconds =       0.50 minutes

*** tstart() called on skystd34.palmetto.clemson.edu
*** at Sat Dec 11 17:33:15 2021


  //>>>>>>>>>>>>>>>>>>>>>>>>>>>>>>>>>>>//
  //               DFMP2               //
  //<<<<<<<<<<<<<<<<<<<<<<<<<<<<<<<<<<<//

   => Loading Basis Set <=

    Name: (CC-PVDZ AUX)
    Role: RIFIT
    Keyword: DF_BASIS_MP2
    atoms 1-12, 27            entry C          line   159 file /home/maxbuskirk/.conda/envs/psifour/share/psi4/basis/cc-pvdz-ri.gbs 
    atoms 13-14, 16-26, 28-30 entry H          line    19 file /home/maxbuskirk/.conda/envs/psifour/share/psi4/basis/cc-pvdz-ri.gbs 
    atoms 15                  entry O          line   235 file /home/maxbuskirk/.conda/envs/psifour/share/psi4/basis/cc-pvdz-ri.gbs 

	 --------------------------------------------------------
	                          DF-MP2                         
	      2nd-Order Density-Fitted Moller-Plesset Theory     
	              RMP2 Wavefunction,   1 Threads             
	                                                         
	        Rob Parrish, Justin Turney, Andy Simmonett,      
	           Ed Hohenstein, and C. David Sherrill          
	 --------------------------------------------------------

   => Auxiliary Basis Set <=

  Basis Set: (CC-PVDZ AUX)
    Blend: CC-PVDZ-RI
    Number of shells: 348
    Number of basis functions: 1008
    Number of Cartesian functions: 1164
    Spherical Harmonics?: true
    Max angular momentum: 3

	 --------------------------------------------------------
	                 NBF =   276, NAUX =  1008
	 --------------------------------------------------------
	   CLASS    FOCC     OCC    AOCC    AVIR     VIR    FVIR
	   PAIRS       0      51      51     225     225       0
	 --------------------------------------------------------


         ------------------------------------------------------------
                                     CPHF                           
                                  Rob Parrish                       
         ------------------------------------------------------------

  ==> Geometry <==

    Molecular point group: c1
    Full point group: C1

    Geometry (in Angstrom), charge = 0, multiplicity = 1:

       Center              X                  Y                   Z               Mass       
    ------------   -----------------  -----------------  -----------------  -----------------
         C            3.722577606396     1.354070256074     0.484348443354    12.000000000000
         C            2.211287606396     1.635036256074     0.576941443354    12.000000000000
         C            1.605319606396     0.408597256074    -0.088012556646    12.000000000000
         C            2.530347606396    -0.213782743926    -0.874413556646    12.000000000000
         C            3.865107606396     0.500063256074    -0.788380556646    12.000000000000
         C            0.184193606396     0.052027256074     0.069484443354    12.000000000000
         C           -0.226950393604    -1.292988743926     0.210065443354    12.000000000000
         C           -1.582920393604    -1.618590743926     0.365464443354    12.000000000000
         C           -2.554758393604    -0.605227743926     0.394710443354    12.000000000000
         C           -2.158283393604     0.737553256074     0.277671443354    12.000000000000
         C           -0.802851393604     1.062494256074     0.124019443354    12.000000000000
         C            2.331425606396    -1.358112743926    -1.822481556646    12.000000000000
         H           -0.504081393604     2.111323256074     0.031501443354     1.007825032230
         H           -2.907517393604     1.534610256074     0.308360443354     1.007825032230
         O           -3.888040393604    -0.924959743926     0.551330443354    15.994914619570
         H           -1.879809393604    -2.666001743926     0.477325443354     1.007825032230
         H            0.529639606396    -2.082808743926     0.229122443354     1.007825032230
         H            4.023592606396     0.748200256074     1.355482443354     1.007825032230
         H            4.338640606396     2.266922256074     0.473215443354     1.007825032230
         H            4.721144606396    -0.196256743926    -0.752033556646     1.007825032230
         H            4.006251606396     1.132565256074    -1.688002556646     1.007825032230
         H            1.266976606396    -1.589007743926    -1.975070556646     1.007825032230
         H            2.780103606396    -1.114519743926    -2.801560556646     1.007825032230
         H            2.836887606396    -2.271425743926    -1.460345556646     1.007825032230
         H            1.857285606396     1.779416256074     1.611265443354     1.007825032230
         H            1.943434606396     2.548100256074     0.009801443354     1.007825032230
         C           -4.652606393604     0.247828256074     0.548753443354    12.000000000000
         H           -5.704739393604    -0.004481743926     0.672346443354     1.007825032230
         H           -4.334639393604     0.890245256074     1.368581443354     1.007825032230
         H           -4.513162393604     0.769983256074    -0.396672556646     1.007825032230

  Nuclear repulsion =  846.802451655004802
  Reference energy  = -576.471225866655004

  ==> Basis Set <==

  Basis Set: CC-PVDZ
    Blend: CC-PVDZ
    Number of shells: 132
    Number of basis functions: 276
    Number of Cartesian functions: 290
    Spherical Harmonics?: true
    Max angular momentum: 2

  ==> CGRSolver (by Rob Parrish) <==

   Number of roots    =         1
   Preconditioning    =    JACOBI
   Convergence cutoff =     1E-06
   Maximum iterations =       100

  ==> CPHFRHamiltonian (by Rob Parrish) <== 

  ==> DiskDFJK: Density-Fitted J/K Matrices <==

    J tasked:                  Yes
    K tasked:                  Yes
    wK tasked:                  No
    OpenMP threads:              1
    Integrals threads:           1
    Memory [MiB]:              375
    Algorithm:                Disk
    Integral Cache:           NONE
    Schwarz Cutoff:          1E-12
    Fitting Condition:       1E-10

   => Auxiliary Basis Set <=

  Basis Set: (CC-PVDZ AUX)
    Blend: CC-PVDZ-JKFIT
    Number of shells: 480
    Number of basis functions: 1348
    Number of Cartesian functions: 1534
    Spherical Harmonics?: true
    Max angular momentum: 3

  ==> CPHF Iterations <==

  => Iterations <=

             Iter  Converged  Remaining    Residual
  CGR           1          0          1   1.129E-01
  CGR           2          0          1   2.196E-02
  CGR           3          0          1   1.117E-02
  CGR           4          0          1   4.574E-03
  CGR           5          0          1   2.541E-03
  CGR           6          0          1   1.046E-03
  CGR           7          0          1   3.924E-04
  CGR           8          0          1   1.277E-04
  CGR           9          0          1   4.282E-05
  CGR          10          0          1   1.743E-05
  CGR          11          0          1   6.617E-06
  CGR          12          0          1   2.505E-06
  CGR          13          1          0   9.098E-07

    CGRSolver converged.

  ==> DFCorrGrad: Density-Fitted Correlated Gradients <==

    OpenMP threads:              1
    Integrals threads:           1
    Memory [GiB]:            0.366
    Schwarz Cutoff:          0E+00
    Fitting Condition:       1E-10

   => Auxiliary Basis Set <=

  Basis Set: (CC-PVDZ AUX)
    Blend: CC-PVDZ-JKFIT
    Number of shells: 480
    Number of basis functions: 1348
    Number of Cartesian functions: 1534
    Spherical Harmonics?: true
    Max angular momentum: 3

	-----------------------------------------------------------
	 ==================> DF-MP2 Energies <==================== 
	-----------------------------------------------------------
	 Reference Energy          =    -576.4712258666550042 [Eh]
	 Singles Energy            =      -0.0000000000000000 [Eh]
	 Same-Spin Energy          =      -0.5139905313973461 [Eh]
	 Opposite-Spin Energy      =      -1.4645092518516867 [Eh]
	 Correlation Energy        =      -1.9784997832490328 [Eh]
	 Total Energy              =    -578.4497256499040532 [Eh]
	-----------------------------------------------------------
	 ================> DF-SCS-MP2 Energies <================== 
	-----------------------------------------------------------
	 SCS Same-Spin Scale       =       0.3333333333333333 [-]
	 SCS Opposite-Spin Scale   =       1.2000000000000000 [-]
	 SCS Same-Spin Energy      =      -0.1713301771324487 [Eh]
	 SCS Opposite-Spin Energy  =      -1.7574111022220240 [Eh]
	 SCS Correlation Energy    =      -1.9287412793544727 [Eh]
	 SCS Total Energy          =    -578.3999671460094305 [Eh]
	-----------------------------------------------------------


  -Total Gradient:
     Atom            X                  Y                   Z
    ------   -----------------  -----------------  -----------------
       1        0.000004937626    -0.000099398022     0.000040686717
       2       -0.000096056987     0.000219305593     0.000079763800
       3        0.000293526551     0.000188975840     0.000182896990
       4       -0.000181457406    -0.000346177482    -0.000229317782
       5       -0.000013044051     0.000185698977     0.000017466757
       6       -0.002000655961    -0.004107097655     0.000401641967
       7        0.005508201393    -0.001833072450    -0.000413545163
       8       -0.002695538366     0.005814547660    -0.000059188691
       9        0.007577258729    -0.002103140675    -0.000825409878
      10       -0.008898872083    -0.008752317138     0.001446140337
      11       -0.003322329717     0.005270190451    -0.000079989029
      12       -0.000061207266     0.000007591260    -0.000070285712
      13        0.000705856878     0.000057847562    -0.000060829748
      14       -0.011888039117     0.001004426638     0.001202547934
      15       -0.017025503920     0.010792202981     0.001205890740
      16        0.002349072388    -0.001083246498    -0.000303291258
      17        0.001065941731     0.000429627881    -0.000077982275
      18        0.000012435100     0.000005994552    -0.000003038196
      19       -0.000073129103    -0.000035288042     0.000003689661
      20       -0.000103425982    -0.000033927846    -0.000043533008
      21       -0.000057481471    -0.000049192148     0.000027902910
      22       -0.000001525158     0.000008262414     0.000006267231
      23        0.000003910569     0.000096660043     0.000003221275
      24        0.000059565180    -0.000019827902     0.000127360996
      25        0.000028292390     0.000020387389    -0.000021188404
      26       -0.000008224195    -0.000078733135     0.000039570839
      27        0.015898446876     0.003199972589    -0.001878747786
      28        0.004884387756     0.006453166349    -0.000924569042
      29        0.003512290321    -0.007993343875    -0.006935882726
      30        0.004522367294    -0.007220095313     0.007141750548


*** tstop() called on skystd34.palmetto.clemson.edu at Sat Dec 11 17:34:59 2021
Module time:
	user time   =      98.93 seconds =       1.65 minutes
	system time =       4.55 seconds =       0.08 minutes
	total time  =        104 seconds =       1.73 minutes
Total time:
	user time   =     127.90 seconds =       2.13 minutes
	system time =       5.16 seconds =       0.09 minutes
	total time  =        134 seconds =       2.23 minutes

			-----------------------------------------
			 OPTKING 2.0: for geometry optimizations 
			  - R.A. King,  Bethel University        
			-----------------------------------------

	Internal coordinates to be generated automatically.
	Detected frag 1 with atoms:  1 2 3 4 5 6 7 8 9 10 11 12 13 14 15 16 17 18 19 20
	 21 22 23 24 25 26 27 28 29 30
	---Fragment 1 Bond Connectivity---
	 1 : 2 5 18 19
	 2 : 1 3 25 26
	 3 : 2 4 6
	 4 : 3 5 12
	 5 : 1 4 20 21
	 6 : 3 7 11
	 7 : 6 8 17
	 8 : 7 9 16
	 9 : 8 10 15
	 10 : 9 11 14
	 11 : 6 10 13
	 12 : 4 22 23 24
	 13 : 11
	 14 : 10
	 15 : 9 27
	 16 : 8
	 17 : 7
	 18 : 1
	 19 : 1
	 20 : 5
	 21 : 5
	 22 : 12
	 23 : 12
	 24 : 12
	 25 : 2
	 26 : 2
	 27 : 15 28 29 30
	 28 : 27
	 29 : 27
	 30 : 27

	---Fragment 1 Geometry and Gradient---
	 C           7.0346521569        2.5588219386        0.9152859072
	 C           4.1787279607        3.0897707292        1.0902613184
	 C           3.0336143999        0.7721369096       -0.1663196277
	 C           4.7816639783       -0.4039908364       -1.6524021424
	 C           7.3039948215        0.9449825994       -1.4898233347
	 C           0.3480754701        0.0983172650        0.1313065679
	 C          -0.4288740880       -2.4433946093        0.3969661564
	 C          -2.9912860223       -3.0586932152        0.6906277065
	 C          -4.8277936806       -1.1437146795        0.7458946368
	 C          -4.0785645150        1.3937736569        0.5247229808
	 C          -1.5171692534        2.0078231539        0.2343627822
	 C           4.4057558780       -2.5664611335       -3.4439910108
	 H          -0.9525757788        3.9898227163        0.0595291005
	 H          -5.4944115789        2.8999930933        0.5827167859
	 O          -7.3473315086       -1.7479205931        1.0418635426
	 H          -3.5523249220       -5.0380131460        0.9020143607
	 H           1.0008738013       -3.9359380977        0.4329786671
	 H           7.6034880665        1.4138935710        2.5614905858
	 H           8.1988425029        4.2838622117        0.8942475863
	 H           8.9216703048       -0.3708714963       -1.4211374592
	 H           7.5707183258        2.1402381532       -3.1898625311
	 H           2.3942387935       -3.0027894473       -3.7323424305
	 H           5.2536344165       -2.1061370774       -5.2941821759
	 H           5.3609406248       -4.2923725703       -2.7596531506
	 H           3.5097611328        3.3626093872        3.0448504034
	 H           3.6725591488        4.8152116242        0.0185220436
	 C          -8.7921518535        0.4683275301        1.0369937183
	 H         -10.7803950710       -0.0084692686        1.2705506394
	 H          -8.1912813065        1.6823197185        2.5862441083
	 H          -8.5286408836        1.4550574752       -0.7496024935
	             0.0000049376       -0.0000993980        0.0000406867
	            -0.0000960570        0.0002193056        0.0000797638
	             0.0002935266        0.0001889758        0.0001828970
	            -0.0001814574       -0.0003461775       -0.0002293178
	            -0.0000130441        0.0001856990        0.0000174668
	            -0.0020006560       -0.0041070977        0.0004016420
	             0.0055082014       -0.0018330725       -0.0004135452
	            -0.0026955384        0.0058145477       -0.0000591887
	             0.0075772587       -0.0021031407       -0.0008254099
	            -0.0088988721       -0.0087523171        0.0014461403
	            -0.0033223297        0.0052701905       -0.0000799890
	            -0.0000612073        0.0000075913       -0.0000702857
	             0.0007058569        0.0000578476       -0.0000608297
	            -0.0118880391        0.0010044266        0.0012025479
	            -0.0170255039        0.0107922030        0.0012058907
	             0.0023490724       -0.0010832465       -0.0003032913
	             0.0010659417        0.0004296279       -0.0000779823
	             0.0000124351        0.0000059946       -0.0000030382
	            -0.0000731291       -0.0000352880        0.0000036897
	            -0.0001034260       -0.0000339278       -0.0000435330
	            -0.0000574815       -0.0000491921        0.0000279029
	            -0.0000015252        0.0000082624        0.0000062672
	             0.0000039106        0.0000966600        0.0000032213
	             0.0000595652       -0.0000198279        0.0001273610
	             0.0000282924        0.0000203874       -0.0000211884
	            -0.0000082242       -0.0000787331        0.0000395708
	             0.0158984469        0.0031999726       -0.0018787478
	             0.0048843878        0.0064531663       -0.0009245690
	             0.0035122903       -0.0079933439       -0.0069358827
	             0.0045223673       -0.0072200953        0.0071417505

	Previous optimization step data not found.  Starting new optimization.

	---Fragment 1 Intrafragment Coordinates---
	 - Coordinate -           - BOHR/RAD -       - ANG/DEG -
	 R(1,2)           =         2.910125	       1.539972
	 R(1,5)           =         2.908878	       1.539312
	 R(1,18)          =         2.084328	       1.102979
	 R(1,19)          =         2.081237	       1.101343
	 R(2,3)           =         2.874319	       1.521024
	 R(2,25)          =         2.083837	       1.102719
	 R(2,26)          =         2.093318	       1.107736
	 R(3,4)           =         2.578254	       1.364353
	 R(3,6)           =         2.784732	       1.473617
	 R(4,5)           =         2.865016	       1.516101
	 R(4,12)          =         2.833262	       1.499298
	 R(5,20)          =         2.086400	       1.104075
	 R(5,21)          =         2.095211	       1.108738
	 R(6,7)           =         2.671053	       1.413460
	 R(6,11)          =         2.671324	       1.413604
	 R(7,8)           =         2.651563	       1.403147
	 R(7,17)          =         2.067163	       1.093895
	 R(8,9)           =         2.653857	       1.404361
	 R(8,16)          =         2.068129	       1.094407
	 R(9,10)          =         2.655016	       1.404974
	 R(9,15)          =         2.607822	       1.380000
	 R(10,11)         =         2.649927	       1.402281
	 R(10,14)         =         2.068014	       1.094346
	 R(11,13)         =         2.068249	       1.094470
	 R(12,22)         =         2.078396	       1.099840
	 R(12,23)         =         2.086625	       1.104194
	 R(12,24)         =         2.087934	       1.104887
	 R(15,27)         =         2.645616	       1.400000
	 R(27,28)         =         2.057910	       1.088999
	 R(27,29)         =         2.057911	       1.089000
	 R(27,30)         =         2.057912	       1.089000
	 B(1,2,3)         =         1.790127	     102.566700
	 B(1,2,25)        =         1.977226	     113.286730
	 B(1,2,26)        =         1.935744	     110.909973
	 B(1,5,4)         =         1.799406	     103.098356
	 B(1,5,20)        =         1.976291	     113.233108
	 B(1,5,21)        =         1.945680	     111.479279
	 B(2,1,5)         =         1.815021	     103.993068
	 B(2,1,18)        =         1.897117	     108.696781
	 B(2,1,19)        =         1.980503	     113.474479
	 B(2,3,4)         =         1.928043	     110.468727
	 B(2,3,6)         =         2.132448	     122.180296
	 B(3,2,25)        =         1.968972	     112.813790
	 B(3,2,26)        =         1.922464	     110.149081
	 B(3,4,5)         =         1.927736	     110.451137
	 B(3,4,12)        =         2.242975	     128.512983
	 B(3,6,7)         =         2.119286	     121.426120
	 B(3,6,11)        =         2.099640	     120.300495
	 B(4,3,6)         =         2.220651	     127.233923
	 B(4,5,20)        =         1.968736	     112.800279
	 B(4,5,21)        =         1.912013	     109.550255
	 B(4,12,22)       =         1.956670	     112.108928
	 B(4,12,23)       =         1.916015	     109.779573
	 B(4,12,24)       =         1.942233	     111.281772
	 B(5,1,18)        =         1.899693	     108.844371
	 B(5,1,19)        =         1.981979	     113.559042
	 B(5,4,12)        =         2.108376	     120.801049
	 B(6,7,8)         =         2.109388	     120.859024
	 B(6,7,17)        =         2.080147	     119.183628
	 B(6,11,10)       =         2.110063	     120.897728
	 B(6,11,13)       =         2.084192	     119.415378
	 B(7,6,11)        =         2.063785	     118.246186
	 B(7,8,9)         =         2.098568	     120.239106
	 B(7,8,16)        =         2.089281	     119.706964
	 B(8,7,17)        =         2.093145	     119.928351
	 B(8,9,10)        =         2.085899	     119.513219
	 B(8,9,15)        =         2.098751	     120.249566
	 B(9,8,16)        =         2.095250	     120.048967
	 B(9,10,11)       =         2.098279	     120.222516
	 B(9,10,14)       =         2.095045	     120.037222
	 B(9,15,27)       =         1.910634	     109.471247
	 B(10,9,15)       =         2.098475	     120.233743
	 B(10,11,13)      =         2.088843	     119.681864
	 B(11,10,14)      =         2.089860	     119.740132
	 B(15,27,28)      =         1.910634	     109.471256
	 B(15,27,29)      =         1.910633	     109.471207
	 B(15,27,30)      =         1.910633	     109.471199
	 B(18,1,19)       =         1.886638	     108.096378
	 B(20,5,21)       =         1.862719	     106.725958
	 B(22,12,23)      =         1.892897	     108.455036
	 B(22,12,24)      =         1.890932	     108.342411
	 B(23,12,24)      =         1.861979	     106.683530
	 B(25,2,26)       =         1.869917	     107.138345
	 B(28,27,29)      =         1.910633	     109.471228
	 B(28,27,30)      =         1.910633	     109.471215
	 B(29,27,30)      =         1.910633	     109.471219
	 D(1,2,3,4)       =        -0.348852	     -19.987768
	 D(1,2,3,6)       =         2.856778	     163.681328
	 D(1,5,4,3)       =         0.300808	      17.235016
	 D(1,5,4,12)      =        -2.930014	    -167.877438
	 D(2,1,5,4)       =        -0.499803	     -28.636594
	 D(2,1,5,20)      =        -2.632586	    -150.836039
	 D(2,1,5,21)      =         1.549857	      88.800282
	 D(2,3,4,5)       =         0.031048	       1.778925
	 D(2,3,4,12)      =        -3.012567	    -172.607364
	 D(2,3,6,7)       =        -2.462500	    -141.090867
	 D(2,3,6,11)      =         0.645400	      36.978697
	 D(3,2,1,5)       =         0.514363	      29.470838
	 D(3,2,1,18)      =        -1.507311	     -86.362554
	 D(3,2,1,19)      =         2.676299	     153.340666
	 D(3,4,5,20)      =         2.438658	     139.724821
	 D(3,4,5,21)      =        -1.772435	    -101.553028
	 D(3,4,12,22)     =         0.167316	       9.586503
	 D(3,4,12,23)     =         2.272366	     130.196980
	 D(3,4,12,24)     =        -1.953574	    -111.931530
	 D(3,6,7,8)       =         3.136447	     179.705195
	 D(3,6,7,17)      =         0.029066	       1.665353
	 D(3,6,11,10)     =        -3.138209	    -179.806114
	 D(3,6,11,13)     =         0.017671	       1.012458
	 D(4,3,2,25)      =        -2.482003	    -142.208323
	 D(4,3,2,26)      =         1.712697	      98.130327
	 D(4,3,6,7)       =         0.754466	      43.227732
	 D(4,3,6,11)      =        -2.420819	    -138.702704
	 D(4,5,1,18)      =         1.520059	      87.092954
	 D(4,5,1,19)      =        -2.660781	    -152.451540
	 D(5,1,2,25)      =         2.641906	     151.370088
	 D(5,1,2,26)      =        -1.537774	     -88.107935
	 D(5,4,3,6)       =         3.104559	     177.878117
	 D(5,4,12,22)     =        -2.867367	    -164.288012
	 D(5,4,12,23)     =        -0.762317	     -43.677535
	 D(5,4,12,24)     =         1.294929	      74.193955
	 D(6,3,2,25)      =         0.723627	      41.460773
	 D(6,3,2,26)      =        -1.364858	     -78.200577
	 D(6,3,4,12)      =         0.060944	       3.491829
	 D(6,7,8,9)       =        -0.009298	      -0.532741
	 D(6,7,8,16)      =        -3.136753	    -179.722706
	 D(6,11,10,9)     =         0.012040	       0.689867
	 D(6,11,10,14)    =        -3.131840	    -179.441216
	 D(7,6,11,10)     =        -0.029252	      -1.676026
	 D(7,6,11,13)     =         3.126627	     179.142545
	 D(7,8,9,10)      =        -0.008597	      -0.492558
	 D(7,8,9,15)      =        -3.138386	    -179.816299
	 D(8,7,6,11)      =         0.027876	       1.597200
	 D(8,9,10,11)     =         0.007241	       0.414863
	 D(8,9,10,14)     =        -3.132057	    -179.453662
	 D(8,9,15,27)     =         3.141593	     180.000000
	 D(9,8,7,17)      =         3.097830	     177.492594
	 D(9,10,11,13)    =         3.139309	     179.869135
	 D(9,15,27,28)    =         3.141593	     180.000000
	 D(9,15,27,29)    =        -1.047198	     -60.000009
	 D(9,15,27,30)    =         1.047197	      59.999968
	 D(10,9,8,16)     =         3.118810	     178.694624
	 D(10,9,15,27)    =         0.011888	       0.681160
	 D(11,6,7,17)     =        -3.079505	    -176.442642
	 D(11,10,9,15)    =         3.137032	     179.738713
	 D(12,4,5,20)     =        -0.792164	     -45.387633
	 D(12,4,5,21)     =         1.279929	      73.334518
	 D(13,11,10,14)   =        -0.004572	      -0.261949
	 D(14,10,9,15)    =        -0.002266	      -0.129813
	 D(15,9,8,16)     =        -0.010980	      -0.629117
	 D(16,8,7,17)     =        -0.029625	      -1.697371
	 D(18,1,2,25)     =         0.620232	      35.536695
	 D(18,1,2,26)     =         2.723738	     156.058672
	 D(18,1,5,20)     =        -0.612724	     -35.106492
	 D(18,1,5,21)     =        -2.713466	    -155.470171
	 D(19,1,2,25)     =        -1.479343	     -84.760085
	 D(19,1,2,26)     =         0.624163	      35.761892
	 D(19,1,5,20)     =         1.489621	      85.349014
	 D(19,1,5,21)     =        -0.611121	     -35.014665
	 R(7,12)          =         6.175900	       3.268146

	Current energy   :      -578.4497256499

	Generating empirical Hessian (Schlegel '84) for each fragment.
	Taking RFO optimization step.
	Going to follow RFO solution 1.
	Using RFO vector 1.
	Norm of target step-size    0.38825
	Projected energy change by RFO approximation:        -0.0374289938

	Back-transformation to cartesian coordinates...
	Successfully converged to displaced geometry.

	--- Internal Coordinate Step in ANG or DEG, aJ/ANG or AJ/DEG ---
	 ---------------------------------------------------------------------------
	   Coordinate                Previous        Force       Change         New 
	   ----------                --------       ------       ------       ------
	    1 R(1,2)          =      1.539972     0.000629    -0.000422     1.539550
	    2 R(1,5)          =      1.539312     0.000062     0.000201     1.539513
	    3 R(1,18)         =      1.102979     0.000019     0.000003     1.102982
	    4 R(1,19)         =      1.101343     0.000578     0.000098     1.101441
	    5 R(2,3)          =      1.521024    -0.000253    -0.000327     1.520697
	    6 R(2,25)         =      1.102719     0.000217     0.000037     1.102756
	    7 R(2,26)         =      1.107736     0.000685     0.000118     1.107854
	    8 R(3,4)          =      1.364353    -0.001413    -0.000798     1.363556
	    9 R(3,6)          =      1.473617    -0.000106    -0.000785     1.472832
	   10 R(4,5)          =      1.516101     0.000644     0.000564     1.516665
	   11 R(4,12)         =      1.499298     0.000318    -0.000227     1.499071
	   12 R(5,20)         =      1.104075     0.000496     0.000085     1.104160
	   13 R(5,21)         =      1.108738     0.000478     0.000083     1.108821
	   14 R(6,7)          =      1.413460    -0.012540    -0.002438     1.411023
	   15 R(6,11)         =      1.413604    -0.041142    -0.006207     1.407397
	   16 R(7,8)          =      1.403147    -0.032406    -0.004029     1.399117
	   17 R(7,17)         =      1.093895    -0.003507    -0.000582     1.093313
	   18 R(8,9)          =      1.404361     0.014262     0.002534     1.406895
	   19 R(8,16)         =      1.094407    -0.003036    -0.000505     1.093902
	   20 R(9,10)         =      1.404974     0.124760     0.016792     1.421766
	   21 R(9,15)         =      1.380000     0.105150     0.012645     1.392645
	   22 R(10,11)        =      1.402281     0.018510     0.002213     1.404494
	   23 R(10,14)        =      1.094346    -0.073360    -0.012200     1.082146
	   24 R(11,13)        =      1.094470    -0.002087    -0.000347     1.094123
	   25 R(12,22)        =      1.099840     0.000009     0.000002     1.099841
	   26 R(12,23)        =      1.104194    -0.000165    -0.000028     1.104166
	   27 R(12,24)        =      1.104887    -0.000703    -0.000121     1.104766
	   28 R(15,27)        =      1.400000     0.167995     0.021612     1.421612
	   29 R(27,28)        =      1.088999     0.052061     0.008523     1.097522
	   30 R(27,29)        =      1.089000     0.073418     0.012019     1.101019
	   31 R(27,30)        =      1.089000     0.074832     0.012251     1.101250
	   32 B(1,2,3)        =    102.566700     0.000007    -0.285611   102.281090
	   33 B(1,2,25)       =    113.286730    -0.000001     0.454327   113.741057
	   34 B(1,2,26)       =    110.909973    -0.000004     0.005825   110.915798
	   35 B(1,5,4)        =    103.098356    -0.000011    -0.639899   102.458456
	   36 B(1,5,20)       =    113.233108    -0.000001     0.355397   113.588504
	   37 B(1,5,21)       =    111.479279     0.000001    -0.250995   111.228284
	   38 B(2,1,5)        =    103.993068    -0.000000     0.577414   104.570483
	   39 B(2,1,18)       =    108.696781    -0.000003    -0.101195   108.595586
	   40 B(2,1,19)       =    113.474479     0.000004    -0.000123   113.474356
	   41 B(2,3,4)        =    110.468727    -0.000012    -0.079432   110.389295
	   42 B(2,3,6)        =    122.180296     0.000024    -0.096741   122.083555
	   43 B(3,2,25)       =    112.813790    -0.000004    -0.267966   112.545824
	   44 B(3,2,26)       =    110.149081    -0.000001     0.346367   110.495447
	   45 B(3,4,5)        =    110.451137     0.000018     0.485406   110.936542
	   46 B(3,4,12)       =    128.512983    -0.000037    -0.267704   128.245279
	   47 B(3,6,7)        =    121.426120     0.000099     0.401363   121.827483
	   48 B(3,6,11)       =    120.300495     0.000155     0.382094   120.682589
	   49 B(4,3,6)        =    127.233923    -0.000011     0.177192   127.411114
	   50 B(4,5,20)       =    112.800279     0.000010     0.177308   112.977587
	   51 B(4,5,21)       =    109.550255     0.000004     0.443094   109.993349
	   52 B(4,12,22)      =    112.108928    -0.000003    -0.422901   111.686027
	   53 B(4,12,23)      =    109.779573     0.000008    -0.547068   109.232505
	   54 B(4,12,24)      =    111.281772     0.000011     0.646731   111.928503
	   55 B(5,1,18)       =    108.844371    -0.000000    -0.524167   108.320205
	   56 B(5,1,19)       =    113.559042    -0.000001    -0.266003   113.293039
	   57 B(5,4,12)       =    120.801049     0.000019    -0.216569   120.584480
	   58 B(6,7,8)        =    120.859024     0.000251     0.422536   121.281560
	   59 B(6,7,17)       =    119.183628    -0.000041     0.166090   119.349718
	   60 B(6,11,10)      =    120.897728     0.000319     0.817714   121.715442
	   61 B(6,11,13)      =    119.415378    -0.000107    -0.178703   119.236675
	   62 B(7,6,11)       =    118.246186    -0.000255    -0.782760   117.463426
	   63 B(7,8,9)        =    120.239106     0.000452     1.150619   121.389725
	   64 B(7,8,16)       =    119.706964    -0.000024     0.145595   119.852559
	   65 B(8,7,17)       =    119.928351    -0.000209    -0.587723   119.340628
	   66 B(8,9,10)       =    119.513219    -0.000782    -1.813214   117.700005
	   67 B(8,9,15)       =    120.249566    -0.002974    -7.615644   112.633922
	   68 B(9,8,16)       =    120.048967    -0.000429    -1.296286   118.752680
	   69 B(9,10,11)      =    120.222516     0.000014     0.205136   120.427652
	   70 B(9,10,14)      =    120.037222     0.000625     2.307506   122.344728
	   71 B(9,15,27)      =    109.471247     0.006268    15.696068   125.167315
	   72 B(10,9,15)      =    120.233743     0.003757     9.429984   129.663727
	   73 B(10,11,13)     =    119.681864    -0.000212    -0.639284   119.042579
	   74 B(11,10,14)     =    119.740132    -0.000639    -2.512577   117.227555
	   75 B(15,27,28)     =    109.471256    -0.000996    -3.447390   106.023866
	   76 B(15,27,29)     =    109.471207     0.000765     3.549283   113.020490
	   77 B(15,27,30)     =    109.471199     0.000753     3.848610   113.319808
	   78 B(18,1,19)      =    108.096378    -0.000000     0.283706   108.380083
	   79 B(20,5,21)      =    106.725958    -0.000002    -0.078251   106.647707
	   80 B(22,12,23)     =    108.455036    -0.000003     0.543778   108.998815
	   81 B(22,12,24)     =    108.342411    -0.000005    -0.073871   108.268540
	   82 B(23,12,24)     =    106.683530    -0.000009    -0.123140   106.560390
	   83 B(25,2,26)      =    107.138345     0.000002    -0.232340   106.906005
	   84 B(28,27,29)     =    109.471228    -0.000199    -0.627621   108.843607
	   85 B(28,27,30)     =    109.471215    -0.000182    -1.036576   108.434639
	   86 B(29,27,30)     =    109.471219    -0.000140    -2.410136   107.061083
	   87 D(1,2,3,4)      =    -19.987768     0.000001     0.103958   -19.883810
	   88 D(1,2,3,6)      =    163.681328    -0.000000     0.080778   163.762105
	   89 D(1,5,4,3)      =     17.235016    -0.000000    -0.153894    17.081122
	   90 D(1,5,4,12)     =   -167.877438    -0.000000    -0.153498  -168.030936
	   91 D(2,1,5,4)      =    -28.636594     0.000001     0.104747   -28.531847
	   92 D(2,1,5,20)     =   -150.836039     0.000000     0.115700  -150.720339
	   93 D(2,1,5,21)     =     88.800282     0.000001     0.149608    88.949890
	   94 D(2,3,4,5)      =      1.778925    -0.000000     0.019661     1.798586
	   95 D(2,3,4,12)     =   -172.607364    -0.000001     0.011028  -172.596335
	   96 D(2,3,6,7)      =   -141.090867    -0.000001    -0.177949  -141.268816
	   97 D(2,3,6,11)     =     36.978697    -0.000002    -0.167842    36.810854
	   98 D(3,2,1,5)      =     29.470838    -0.000000     0.017417    29.488255
	   99 D(3,2,1,18)     =    -86.362554     0.000000     0.375914   -85.986640
	  100 D(3,2,1,19)     =    153.340666     0.000000     0.087423   153.428088
	  101 D(3,4,5,20)     =    139.724821    -0.000001    -0.040889   139.683932
	  102 D(3,4,5,21)     =   -101.553028     0.000001     0.275946  -101.277081
	  103 D(3,4,12,22)    =      9.586503     0.000001     0.036338     9.622841
	  104 D(3,4,12,23)    =    130.196980     0.000000     0.075612   130.272592
	  105 D(3,4,12,24)    =   -111.931530     0.000001    -0.029666  -111.961196
	  106 D(3,6,7,8)      =    179.705195     0.000001     0.025251   179.730446
	  107 D(3,6,7,17)     =      1.665353     0.000000     0.006027     1.671380
	  108 D(3,6,11,10)    =   -179.806114     0.000000    -0.029947  -179.836061
	  109 D(3,6,11,13)    =      1.012458    -0.000000    -0.002445     1.010013
	  110 D(4,3,2,25)     =   -142.208323     0.000000    -0.121391  -142.329714
	  111 D(4,3,2,26)     =     98.130327     0.000000     0.112209    98.242536
	  112 D(4,3,6,7)      =     43.227732    -0.000003    -0.192872    43.034860
	  113 D(4,3,6,11)     =   -138.702704    -0.000004    -0.182765  -138.885470
	  114 D(4,5,1,18)     =     87.092954     0.000001     0.042189    87.135143
	  115 D(4,5,1,19)     =   -152.451540     0.000000    -0.136384  -152.587924
	  116 D(5,1,2,25)     =    151.370088    -0.000000    -0.252330   151.117758
	  117 D(5,1,2,26)     =    -88.107935    -0.000000    -0.231045   -88.338980
	  118 D(5,4,3,6)      =    177.878117     0.000001     0.031017   177.909134
	  119 D(5,4,12,22)    =   -164.288012    -0.000000    -0.006418  -164.294431
	  120 D(5,4,12,23)    =    -43.677535    -0.000000     0.032855   -43.644680
	  121 D(5,4,12,24)    =     74.193955    -0.000000    -0.072423    74.121532
	  122 D(6,3,2,25)     =     41.460773    -0.000001    -0.144572    41.316201
	  123 D(6,3,2,26)     =    -78.200577    -0.000000     0.089028   -78.111549
	  124 D(6,3,4,12)     =      3.491829     0.000000     0.022384     3.514213
	  125 D(6,7,8,9)      =     -0.532741    -0.000001    -0.003872    -0.536613
	  126 D(6,7,8,16)     =   -179.722706    -0.000001     0.012766  -179.709940
	  127 D(6,11,10,9)    =      0.689867    -0.000001     0.010181     0.700048
	  128 D(6,11,10,14)   =   -179.441216    -0.000000     0.050898  -179.390318
	  129 D(7,6,11,10)    =     -1.676026     0.000001     0.001181    -1.674845
	  130 D(7,6,11,13)    =    179.142545     0.000000     0.028684   179.171229
	  131 D(7,8,9,10)     =     -0.492558     0.000001     0.009875    -0.482683
	  132 D(7,8,9,15)     =   -179.816299    -0.000007    -0.163156  -179.979455
	  133 D(8,7,6,11)     =      1.597200     0.000000    -0.005525     1.591675
	  134 D(8,9,10,11)    =      0.414863     0.000000    -0.011442     0.403421
	  135 D(8,9,10,14)    =   -179.453662     0.000000    -0.047807  -179.501469
	  136 D(8,9,15,27)    =    180.000000    -0.000002    -0.121369   179.878631
	  137 D(9,8,7,17)     =    177.492594     0.000001     0.030032   177.522626
	  138 D(9,10,11,13)   =    179.869135    -0.000000    -0.013564   179.855571
	  139 D(9,15,27,28)   =    180.000000    -0.000004    -0.426797   179.573203
	  140 D(9,15,27,29)   =    -60.000009    -0.000092    -1.273528   -61.273536
	  141 D(9,15,27,30)   =     59.999968     0.000082     0.752093    60.752061
	  142 D(10,9,8,16)    =    178.694624     0.000002     0.004879   178.699503
	  143 D(10,9,15,27)   =      0.681160    -0.000003    -0.223737     0.457423
	  144 D(11,6,7,17)    =   -176.442642    -0.000001    -0.024748  -176.467390
	  145 D(11,10,9,15)   =    179.738713    -0.000003     0.061343   179.800055
	  146 D(12,4,5,20)    =    -45.387633    -0.000001    -0.040493   -45.428126
	  147 D(12,4,5,21)    =     73.334518     0.000000     0.276343    73.610861
	  148 D(13,11,10,14)  =     -0.261949     0.000000     0.027153    -0.234795
	  149 D(14,10,9,15)   =     -0.129813    -0.000003     0.024978    -0.104835
	  150 D(15,9,8,16)    =     -0.629117    -0.000006    -0.168152    -0.797269
	  151 D(16,8,7,17)    =     -1.697371     0.000001     0.046670    -1.650701
	  152 D(18,1,2,25)    =     35.536695     0.000000     0.106168    35.642863
	  153 D(18,1,2,26)    =    156.058672    -0.000000     0.127453   156.186125
	  154 D(18,1,5,20)    =    -35.106492    -0.000000     0.053142   -35.053350
	  155 D(18,1,5,21)    =   -155.470171     0.000000     0.087050  -155.383121
	  156 D(19,1,2,25)    =    -84.760085     0.000000    -0.182324   -84.942409
	  157 D(19,1,2,26)    =     35.761892    -0.000000    -0.161039    35.600853
	  158 D(19,1,5,20)    =     85.349014    -0.000001    -0.125431    85.223583
	  159 D(19,1,5,21)    =    -35.014665    -0.000000    -0.091524   -35.106188
	  160 R(7,12)         =      3.268146     0.002009     0.003008     3.271154
	 ---------------------------------------------------------------------------
	Successfully symmetrized geometry.

  ==> Convergence Check <==

  Measures of convergence in internal coordinates in au.
  Criteria marked as inactive (o), active & met (*), and active & unmet ( ).
  --------------------------------------------------------------------------------------------- ~
   Step     Total Energy     Delta E     MAX Force     RMS Force      MAX Disp      RMS Disp    ~
  --------------------------------------------------------------------------------------------- ~
    Convergence Criteria    1.00e-06 *    3.00e-04 *             o    1.20e-03 *             o  ~
  --------------------------------------------------------------------------------------------- ~
      1    -578.44972565   -5.78e+02      8.24e-02      8.91e-03 o    2.74e-01      3.04e-02 o  ~
  ---------------------------------------------------------------------------------------------

	Writing optimization data to binary file.
	Structure for next step:
	Cartesian Geometry (in Angstrom)
	    C     3.9708211022   0.8036363408   0.4526396689
	    C     2.5432770903   1.3793085064   0.4832046967
	    C     1.7216689528   0.2376417144  -0.0947895983
	    C     2.5208230137  -0.6138298907  -0.7988016806
	    C     3.9700823253  -0.1706755151  -0.7393406633
	    C     0.2575214092   0.1749385639   0.0520909851
	    C    -0.4151381108  -1.0426631985   0.2886495556
	    C    -1.8061545111  -1.0882561944   0.4319123297
	    C    -2.5891450649   0.0782306722   0.3571607058
	    C    -1.9173208251   1.3124190465   0.1407119543
	    C    -0.5203257965   1.3466861532  -0.0001233644
	    C     2.1130929383  -1.7762167657  -1.6531008086
	    H    -0.0268734147   2.3086228070  -0.1683144458
	    H    -2.4444771859   2.2554422851   0.0786406144
	    O    -3.9479359427  -0.1766816441   0.5249933197
	    H    -2.3031751615  -2.0445016486   0.6194912576
	    H     0.1646614549  -1.9636593752   0.3932042738
	    H     4.1354965216   0.2223612164   1.3754458704
	    H     4.7537170021   1.5753375070   0.3839092436
	    H     4.6739715337  -1.0132217262  -0.6217595870
	    H     4.2474500327   0.3460150046  -1.6803943366
	    H     1.0249272490  -1.8028214780  -1.8107036157
	    H     2.6165093369  -1.7016861588  -2.6329986807
	    H     2.4228887713  -2.7407876577  -1.2124899638
	    H     2.2055553474   1.6757036120   1.4902620407
	    H     2.4653065641   2.2778220148  -0.1601734424
	    C    -4.9745530879   0.8064017446   0.5008048427
	    H    -5.9164031133   0.2647627827   0.6560477387
	    H    -4.8647836708   1.5631518272   1.2929680392
	    H    -5.0376286039   1.3473911214  -0.4563286390
			--------------------------
			 OPTKING Finished Execution 
			--------------------------

    Structure for next step:
    Molecular point group: c1
    Full point group: C1

    Geometry (in Angstrom), charge = 0, multiplicity = 1:

    C            3.952058879198     0.712548326507     0.458077383419
    C            2.524514861721     1.288220494402     0.488642411325
    C            1.702906721011     0.146553697887    -0.089351885932
    C            2.502060785092    -0.704917910538    -0.793363970950
    C            3.951320102302    -0.261763533159    -0.733902953427
    C            0.238759171603     0.083850547211     0.057528698096
    C           -0.433900350992    -1.133751220044     0.294087269451
    C           -1.824916756759    -1.179344216125     0.437350044124
    C           -2.607907313667    -0.012857344852     0.362598419933
    C           -1.936083071224     1.221331034295     0.146149667576
    C           -0.539088037067     1.255598141120     0.005314348349
    C            2.094330708060    -1.867304790065    -1.647663102373
    H           -0.045635653402     2.217534798666    -0.162876733666
    H           -2.463239434086     2.164354276587     0.084078327456
    O           -3.966698196799    -0.267769662199     0.530431034501
    H           -2.321937409070    -2.135589674079     0.624928972799
    H            0.145899216993    -2.054747400311     0.398641988058
    H            4.116734299341     0.131273199847     1.380883588598
    H            4.734954782178     1.484249495741     0.389346957908
    H            4.655209313470    -1.104309747584    -0.616321876680
    H            4.228687810860     0.254926988566    -1.674956630481
    H            1.006165014417    -1.893909502446    -1.805265910059
    H            2.597747108599    -1.792774182853    -2.627560978309
    H            2.404126542222    -2.831875685903    -1.207052255857
    H            2.186793117539     1.584615601193     1.495699759277
    H            2.446544335242     2.186734006363    -0.154735730296
    C           -4.993315345974     0.715313730380     0.506242557473
    H           -5.935165375096     0.173674766291     0.661485454021
    H           -4.883545928437     1.472063815898     1.298405756990
    H           -5.056390862264     1.256303109269    -0.450890928045


Scratch directory: /local_scratch/pbs.4129834.pbs02/
gradient() will perform analytic gradient computation.

*** tstart() called on skystd34.palmetto.clemson.edu
*** at Sat Dec 11 17:34:59 2021

   => Loading Basis Set <=

    Name: CC-PVDZ
    Role: ORBITAL
    Keyword: BASIS
    atoms 1-12, 27            entry C          line   138 file /home/maxbuskirk/.conda/envs/psifour/share/psi4/basis/cc-pvdz.gbs 
    atoms 13-14, 16-26, 28-30 entry H          line    22 file /home/maxbuskirk/.conda/envs/psifour/share/psi4/basis/cc-pvdz.gbs 
    atoms 15                  entry O          line   198 file /home/maxbuskirk/.conda/envs/psifour/share/psi4/basis/cc-pvdz.gbs 


         ---------------------------------------------------------
                                   SCF
               by Justin Turney, Rob Parrish, Andy Simmonett
                          and Daniel G. A. Smith
                              RHF Reference
                        1 Threads,    500 MiB Core
         ---------------------------------------------------------

  ==> Geometry <==

    Molecular point group: c1
    Full point group: C1

    Geometry (in Angstrom), charge = 0, multiplicity = 1:

       Center              X                  Y                   Z               Mass       
    ------------   -----------------  -----------------  -----------------  -----------------
         C            3.952058879198     0.712548326507     0.458077383419    12.000000000000
         C            2.524514861721     1.288220494402     0.488642411325    12.000000000000
         C            1.702906721011     0.146553697887    -0.089351885932    12.000000000000
         C            2.502060785092    -0.704917910538    -0.793363970950    12.000000000000
         C            3.951320102302    -0.261763533159    -0.733902953427    12.000000000000
         C            0.238759171603     0.083850547211     0.057528698096    12.000000000000
         C           -0.433900350992    -1.133751220044     0.294087269451    12.000000000000
         C           -1.824916756759    -1.179344216125     0.437350044124    12.000000000000
         C           -2.607907313667    -0.012857344852     0.362598419933    12.000000000000
         C           -1.936083071224     1.221331034295     0.146149667576    12.000000000000
         C           -0.539088037067     1.255598141120     0.005314348349    12.000000000000
         C            2.094330708060    -1.867304790065    -1.647663102373    12.000000000000
         H           -0.045635653402     2.217534798666    -0.162876733666     1.007825032230
         H           -2.463239434086     2.164354276587     0.084078327456     1.007825032230
         O           -3.966698196799    -0.267769662199     0.530431034501    15.994914619570
         H           -2.321937409070    -2.135589674079     0.624928972799     1.007825032230
         H            0.145899216993    -2.054747400311     0.398641988058     1.007825032230
         H            4.116734299341     0.131273199847     1.380883588598     1.007825032230
         H            4.734954782178     1.484249495741     0.389346957908     1.007825032230
         H            4.655209313470    -1.104309747584    -0.616321876680     1.007825032230
         H            4.228687810860     0.254926988566    -1.674956630481     1.007825032230
         H            1.006165014417    -1.893909502446    -1.805265910059     1.007825032230
         H            2.597747108599    -1.792774182853    -2.627560978309     1.007825032230
         H            2.404126542222    -2.831875685903    -1.207052255857     1.007825032230
         H            2.186793117539     1.584615601193     1.495699759277     1.007825032230
         H            2.446544335242     2.186734006363    -0.154735730296     1.007825032230
         C           -4.993315345974     0.715313730380     0.506242557473    12.000000000000
         H           -5.935165375096     0.173674766291     0.661485454021     1.007825032230
         H           -4.883545928437     1.472063815898     1.298405756990     1.007825032230
         H           -5.056390862264     1.256303109269    -0.450890928045     1.007825032230

  Running in c1 symmetry.

  Rotational constants: A =      0.06412  B =      0.01050  C =      0.00946 [cm^-1]
  Rotational constants: A =   1922.40093  B =    314.72909  C =    283.70394 [MHz]
  Nuclear repulsion =  838.065925399926073

  Charge       = 0
  Multiplicity = 1
  Electrons    = 102
  Nalpha       = 51
  Nbeta        = 51

  ==> Algorithm <==

  SCF Algorithm Type is DF.
  DIIS enabled.
  MOM disabled.
  Fractional occupation disabled.
  Guess Type is READ.
  Energy threshold   = 1.00e-10
  Density threshold  = 1.00e-10
  Integral threshold = 1.00e-12

  ==> Primary Basis <==

  Basis Set: CC-PVDZ
    Blend: CC-PVDZ
    Number of shells: 132
    Number of basis functions: 276
    Number of Cartesian functions: 290
    Spherical Harmonics?: true
    Max angular momentum: 2

   => Loading Basis Set <=

    Name: (CC-PVDZ AUX)
    Role: JKFIT
    Keyword: DF_BASIS_SCF
    atoms 1-12, 27            entry C          line   121 file /home/maxbuskirk/.conda/envs/psifour/share/psi4/basis/cc-pvdz-jkfit.gbs 
    atoms 13-14, 16-26, 28-30 entry H          line    51 file /home/maxbuskirk/.conda/envs/psifour/share/psi4/basis/cc-pvdz-jkfit.gbs 
    atoms 15                  entry O          line   221 file /home/maxbuskirk/.conda/envs/psifour/share/psi4/basis/cc-pvdz-jkfit.gbs 

   => Loading Basis Set <=

    Name: CC-PVDZ
    Role: ORBITAL
    Keyword: BASIS
    atoms 1-12, 27            entry C          line   138 file /home/maxbuskirk/.conda/envs/psifour/share/psi4/basis/cc-pvdz.gbs 
    atoms 13-14, 16-26, 28-30 entry H          line    22 file /home/maxbuskirk/.conda/envs/psifour/share/psi4/basis/cc-pvdz.gbs 
    atoms 15                  entry O          line   198 file /home/maxbuskirk/.conda/envs/psifour/share/psi4/basis/cc-pvdz.gbs 

  Reading orbitals from file /local_scratch/pbs.4129834.pbs02/pOMe.mol.1703804.180.npy, no projection.

  ==> Integral Setup <==

  ==> DiskDFJK: Density-Fitted J/K Matrices <==

    J tasked:                  Yes
    K tasked:                  Yes
    wK tasked:                  No
    OpenMP threads:              1
    Integrals threads:           1
    Memory [MiB]:              375
    Algorithm:                Core
    Integral Cache:           NONE
    Schwarz Cutoff:          1E-12
    Fitting Condition:       1E-10

   => Auxiliary Basis Set <=

  Basis Set: (CC-PVDZ AUX)
    Blend: CC-PVDZ-JKFIT
    Number of shells: 480
    Number of basis functions: 1348
    Number of Cartesian functions: 1534
    Spherical Harmonics?: true
    Max angular momentum: 3

  Minimum eigenvalue in the overlap matrix is 3.2729432788E-04.
  Reciprocal condition number of the overlap matrix is 5.0702361583E-05.
    Using symmetric orthogonalization.

  ==> Pre-Iterations <==

  SCF Guess: Orbitals guess was supplied from a previous computation.

   -------------------------------------------------------
    Irrep   Nso     Nmo     Nalpha   Nbeta   Ndocc  Nsocc
   -------------------------------------------------------
     A        276     276      51      51      51       0
   -------------------------------------------------------
    Total     276     276      51      51      51       0
   -------------------------------------------------------

  ==> Iterations <==

                           Total Energy        Delta E     RMS |[F,P]|

   @DF-RHF iter   0:  -575.92557612101450   -5.75926e+02   2.91074e-03 
   @DF-RHF iter   1:  -576.44713027658395   -5.21554e-01   7.18672e-04 DIIS
   @DF-RHF iter   2:  -576.47157917049162   -2.44489e-02   3.39100e-04 DIIS
   @DF-RHF iter   3:  -576.47657448994175   -4.99532e-03   1.02586e-04 DIIS
   @DF-RHF iter   4:  -576.47722379880690   -6.49309e-04   4.11578e-05 DIIS
   @DF-RHF iter   5:  -576.47731106894776   -8.72701e-05   9.00042e-06 DIIS
   @DF-RHF iter   6:  -576.47731893747459   -7.86853e-06   4.33581e-06 DIIS
   @DF-RHF iter   7:  -576.47732057263306   -1.63516e-06   1.36491e-06 DIIS
   @DF-RHF iter   8:  -576.47732078068304   -2.08050e-07   5.18313e-07 DIIS
   @DF-RHF iter   9:  -576.47732081047707   -2.97940e-08   1.78755e-07 DIIS
   @DF-RHF iter  10:  -576.47732081398851   -3.51145e-09   6.09408e-08 DIIS
   @DF-RHF iter  11:  -576.47732081454001   -5.51495e-10   2.78687e-08 DIIS
   @DF-RHF iter  12:  -576.47732081467154   -1.31536e-10   1.35048e-08 DIIS
   @DF-RHF iter  13:  -576.47732081471236   -4.08136e-11   5.93889e-09 DIIS
   @DF-RHF iter  14:  -576.47732081471986   -7.50333e-12   2.27216e-09 DIIS
   @DF-RHF iter  15:  -576.47732081472020   -3.41061e-13   8.13158e-10 DIIS
   @DF-RHF iter  16:  -576.47732081472009    1.13687e-13   2.58743e-10 DIIS
   @DF-RHF iter  17:  -576.47732081472054   -4.54747e-13   1.08779e-10 DIIS
   @DF-RHF iter  18:  -576.47732081472031    2.27374e-13   5.27967e-11 DIIS
  Energy and wave function converged.


  ==> Post-Iterations <==

    Orbital Energies [Eh]
    ---------------------

    Doubly Occupied:                                                      

       1A    -20.580453     2A    -11.307843     3A    -11.293894  
       4A    -11.243429     5A    -11.241201     6A    -11.240494  
       7A    -11.237341     8A    -11.231810     9A    -11.231042  
      10A    -11.226952    11A    -11.226790    12A    -11.226520  
      13A    -11.226260    14A    -11.223831    15A     -1.391301  
      16A     -1.155052    17A     -1.125067    18A     -1.030677  
      19A     -1.013751    20A     -1.002006    21A     -0.959600  
      22A     -0.920892    23A     -0.894543    24A     -0.828230  
      25A     -0.807219    26A     -0.777719    27A     -0.716177  
      28A     -0.694442    29A     -0.655361    30A     -0.640354  
      31A     -0.639667    32A     -0.635777    33A     -0.616086  
      34A     -0.591371    35A     -0.578888    36A     -0.567698  
      37A     -0.564013    38A     -0.557373    39A     -0.538570  
      40A     -0.518008    41A     -0.513968    42A     -0.496516  
      43A     -0.481477    44A     -0.480513    45A     -0.475916  
      46A     -0.469499    47A     -0.458495    48A     -0.451740  
      49A     -0.348304    50A     -0.333381    51A     -0.277280  

    Virtual:                                                              

      52A      0.124236    53A      0.133597    54A      0.178835  
      55A      0.183888    56A      0.200971    57A      0.203148  
      58A      0.206802    59A      0.221914    60A      0.233586  
      61A      0.244662    62A      0.255781    63A      0.265271  
      64A      0.267608    65A      0.271174    66A      0.273775  
      67A      0.288704    68A      0.290570    69A      0.298749  
      70A      0.302661    71A      0.323794    72A      0.344025  
      73A      0.368165    74A      0.393525    75A      0.398602  
      76A      0.413281    77A      0.429761    78A      0.434857  
      79A      0.449291    80A      0.472769    81A      0.509452  
      82A      0.524005    83A      0.543341    84A      0.576663  
      85A      0.599929    86A      0.621316    87A      0.624176  
      88A      0.629512    89A      0.636591    90A      0.661446  
      91A      0.664544    92A      0.676127    93A      0.685191  
      94A      0.699526    95A      0.704811    96A      0.715612  
      97A      0.721319    98A      0.730788    99A      0.737246  
     100A      0.745575   101A      0.753415   102A      0.761684  
     103A      0.772043   104A      0.791667   105A      0.809067  
     106A      0.818381   107A      0.828668   108A      0.835054  
     109A      0.847566   110A      0.849075   111A      0.855775  
     112A      0.865928   113A      0.866779   114A      0.883426  
     115A      0.885212   116A      0.886897   117A      0.891894  
     118A      0.892996   119A      0.900772   120A      0.903635  
     121A      0.914975   122A      0.922040   123A      0.929755  
     124A      0.934441   125A      0.938710   126A      0.940813  
     127A      0.951875   128A      0.955096   129A      0.960521  
     130A      0.977520   131A      0.989261   132A      0.999132  
     133A      1.019804   134A      1.042976   135A      1.048163  
     136A      1.068874   137A      1.118137   138A      1.130697  
     139A      1.141395   140A      1.159011   141A      1.164751  
     142A      1.171271   143A      1.176857   144A      1.193917  
     145A      1.223315   146A      1.246313   147A      1.265387  
     148A      1.280032   149A      1.292332   150A      1.303282  
     151A      1.323199   152A      1.333913   153A      1.344487  
     154A      1.361759   155A      1.376725   156A      1.381561  
     157A      1.429196   158A      1.443984   159A      1.467548  
     160A      1.484492   161A      1.499860   162A      1.517344  
     163A      1.524978   164A      1.535439   165A      1.560252  
     166A      1.574295   167A      1.590805   168A      1.629215  
     169A      1.633552   170A      1.652488   171A      1.663521  
     172A      1.686701   173A      1.694489   174A      1.709055  
     175A      1.730319   176A      1.752961   177A      1.767616  
     178A      1.780599   179A      1.794542   180A      1.810754  
     181A      1.814216   182A      1.835821   183A      1.846224  
     184A      1.852404   185A      1.870042   186A      1.874199  
     187A      1.881105   188A      1.889456   189A      1.897664  
     190A      1.900313   191A      1.910029   192A      1.922737  
     193A      1.925704   194A      1.929647   195A      1.932391  
     196A      1.938544   197A      1.948759   198A      1.967625  
     199A      1.973868   200A      1.979250   201A      1.984778  
     202A      2.001126   203A      2.024016   204A      2.028554  
     205A      2.032175   206A      2.039365   207A      2.058514  
     208A      2.060873   209A      2.068070   210A      2.075702  
     211A      2.081290   212A      2.098199   213A      2.110099  
     214A      2.116909   215A      2.130104   216A      2.138750  
     217A      2.156472   218A      2.159538   219A      2.170403  
     220A      2.198845   221A      2.218015   222A      2.247147  
     223A      2.258008   224A      2.264491   225A      2.272839  
     226A      2.286058   227A      2.308931   228A      2.324323  
     229A      2.336675   230A      2.345503   231A      2.358445  
     232A      2.381005   233A      2.404054   234A      2.410383  
     235A      2.428631   236A      2.436657   237A      2.457266  
     238A      2.464235   239A      2.472093   240A      2.502504  
     241A      2.520330   242A      2.529839   243A      2.542177  
     244A      2.555349   245A      2.588921   246A      2.624504  
     247A      2.664336   248A      2.680539   249A      2.725143  
     250A      2.730344   251A      2.735870   252A      2.760583  
     253A      2.764367   254A      2.775001   255A      2.792719  
     256A      2.798881   257A      2.806788   258A      2.829006  
     259A      2.833083   260A      2.877139   261A      2.927324  
     262A      2.955459   263A      2.962685   264A      2.998064  
     265A      3.013982   266A      3.029615   267A      3.065973  
     268A      3.122943   269A      3.201151   270A      3.208251  
     271A      3.266280   272A      3.368998   273A      3.427025  
     274A      3.586806   275A      3.809038   276A      4.002806  

    Final Occupation by Irrep:
              A 
    DOCC [    51 ]

  @DF-RHF Final Energy:  -576.47732081472031

   => Energetics <=

    Nuclear Repulsion Energy =            838.0659253999260727
    One-Electron Energy =               -2445.1969044926031529
    Two-Electron Energy =                1030.6536582779567652
    Total Energy =                       -576.4773208147203150

Computation Completed


Properties will be evaluated at   0.000000,   0.000000,   0.000000 [a0]

Properties computed using the SCF density matrix

  Nuclear Dipole Moment: [e a0]
     X:     7.3091      Y:     1.0417      Z:    -2.2157

  Electronic Dipole Moment: [e a0]
     X:    -7.4725      Y:    -0.6110      Z:     2.0991

  Dipole Moment: [e a0]
     X:    -0.1634      Y:     0.4306      Z:    -0.1166     Total:     0.4751

  Dipole Moment: [D]
     X:    -0.4153      Y:     1.0946      Z:    -0.2964     Total:     1.2077


*** tstop() called on skystd34.palmetto.clemson.edu at Sat Dec 11 17:35:25 2021
Module time:
	user time   =      24.82 seconds =       0.41 minutes
	system time =       0.50 seconds =       0.01 minutes
	total time  =         26 seconds =       0.43 minutes
Total time:
	user time   =     152.81 seconds =       2.55 minutes
	system time =       5.68 seconds =       0.09 minutes
	total time  =        160 seconds =       2.67 minutes

*** tstart() called on skystd34.palmetto.clemson.edu
*** at Sat Dec 11 17:35:25 2021


  //>>>>>>>>>>>>>>>>>>>>>>>>>>>>>>>>>>>//
  //               DFMP2               //
  //<<<<<<<<<<<<<<<<<<<<<<<<<<<<<<<<<<<//

   => Loading Basis Set <=

    Name: (CC-PVDZ AUX)
    Role: RIFIT
    Keyword: DF_BASIS_MP2
[...]
	   86 B(29,27,30)     =    109.030409    -0.000000    -0.006561   109.023848
	   87 D(1,2,3,4)      =    -20.016786    -0.000000    -0.012472   -20.029258
	   88 D(1,2,3,6)      =    163.459828     0.000000     0.005497   163.465324
	   89 D(1,5,4,3)      =     17.072668    -0.000000    -0.008368    17.064300
	   90 D(1,5,4,12)     =   -168.010508    -0.000000    -0.011167  -168.021675
	   91 D(2,1,5,4)      =    -28.489599     0.000000     0.000530   -28.489069
	   92 D(2,1,5,20)     =   -150.697575     0.000000     0.001894  -150.695681
	   93 D(2,1,5,21)     =     88.997463     0.000000     0.001401    88.998863
	   94 D(2,3,4,5)      =      1.896209     0.000000     0.013095     1.909304
	   95 D(2,3,4,12)     =   -172.520954     0.000000     0.016738  -172.504217
	   96 D(2,3,6,7)      =   -142.428318    -0.000000    -0.142600  -142.570919
	   97 D(2,3,6,11)     =     35.389356    -0.000000    -0.131618    35.257737
	   98 D(3,2,1,5)      =     29.407992     0.000000     0.007164    29.415156
	   99 D(3,2,1,18)     =    -86.418523     0.000000     0.008045   -86.410479
	  100 D(3,2,1,19)     =    153.287608     0.000000     0.006877   153.294485
	  101 D(3,4,5,20)     =    139.530510     0.000000    -0.007153   139.523357
	  102 D(3,4,5,21)     =   -101.734419    -0.000000    -0.009247  -101.743666
	  103 D(3,4,12,22)    =     10.306261     0.000000     0.169216    10.475477
	  104 D(3,4,12,23)    =    130.894162     0.000000     0.171361   131.065523
	  105 D(3,4,12,24)    =   -111.216577     0.000000     0.175266  -111.041312
	  106 D(3,6,7,8)      =    179.585225    -0.000000     0.000998   179.586223
	  107 D(3,6,7,17)     =      1.573994     0.000000     0.023172     1.597167
	  108 D(3,6,11,10)    =   -179.735104    -0.000000    -0.004512  -179.739616
	  109 D(3,6,11,13)    =      1.166296    -0.000000    -0.003072     1.163224
	  110 D(4,3,2,25)     =   -142.244471    -0.000000    -0.011874  -142.256345
	  111 D(4,3,2,26)     =     98.123737    -0.000000    -0.012618    98.111119
	  112 D(4,3,6,7)      =     41.675396    -0.000000    -0.120882    41.554514
	  113 D(4,3,6,11)     =   -140.506930    -0.000000    -0.109899  -140.616830
	  114 D(4,5,1,18)     =     87.230029    -0.000000     0.000425    87.230455
	  115 D(4,5,1,19)     =   -152.335746     0.000000     0.001165  -152.334581
	  116 D(5,1,2,25)     =    151.309361     0.000000     0.007449   151.316810
	  117 D(5,1,2,26)     =    -88.190331    -0.000000     0.007012   -88.183319
	  118 D(5,4,3,6)      =    178.187258    -0.000000    -0.006521   178.180737
	  119 D(5,4,12,22)    =   -163.607293     0.000000     0.172750  -163.434543
	  120 D(5,4,12,23)    =    -43.019392     0.000000     0.174895   -42.844498
	  121 D(5,4,12,24)    =     74.869868     0.000000     0.178799    75.048668
	  122 D(6,3,2,25)     =     41.232143     0.000000     0.006095    41.238238
	  123 D(6,3,2,26)     =    -78.399650     0.000000     0.005351   -78.394299
	  124 D(6,3,4,12)     =      3.770094    -0.000000    -0.002878     3.767217
	  125 D(6,7,8,9)      =     -0.506350     0.000000     0.004629    -0.501721
	  126 D(6,7,8,16)     =   -179.524318     0.000000     0.005383  -179.518935
	  127 D(6,11,10,9)    =      0.739149     0.000000     0.002200     0.741349
	  128 D(6,11,10,14)   =   -179.409099     0.000000     0.010715  -179.398383
	  129 D(7,6,11,10)    =     -1.824840     0.000000     0.006227    -1.818613
	  130 D(7,6,11,13)    =    179.076561     0.000000     0.007666   179.084227
	  131 D(7,8,9,10)     =     -0.633577     0.000000     0.004003    -0.629573
	  132 D(7,8,9,15)     =    179.980550    -0.000000    -0.022489   179.958061
	  133 D(8,7,6,11)     =      1.702548    -0.000000    -0.009647     1.692900
	  134 D(8,9,10,11)    =      0.520548    -0.000000    -0.007329     0.513218
	  135 D(8,9,10,14)    =   -179.327666    -0.000000    -0.016048  -179.343714
	  136 D(8,9,15,27)    =    179.496524    -0.000000    -0.022116   179.474407
	  137 D(9,8,7,17)     =    177.506724    -0.000000    -0.017346   177.489378
	  138 D(9,10,11,13)   =    179.844695     0.000000     0.000791   179.845487
	  139 D(9,15,27,28)   =    179.938247    -0.000000     0.001847   179.940094
	  140 D(9,15,27,29)   =    -61.217463    -0.000000     0.012218   -61.205246
	  141 D(9,15,27,30)   =     61.088652    -0.000000     0.012483    61.101135
	  142 D(10,9,8,16)    =    178.414538     0.000000     0.003389   178.417926
	  143 D(10,9,15,27)   =      0.152540    -0.000000    -0.050405     0.102135
	  144 D(11,6,7,17)    =   -176.308683     0.000000     0.012527  -176.296157
	  145 D(11,10,9,15)   =    179.843019     0.000000     0.021910   179.864929
	  146 D(12,4,5,20)    =    -45.552666    -0.000000    -0.009952   -45.562619
	  147 D(12,4,5,21)    =     73.182405    -0.000000    -0.012046    73.170359
	  148 D(13,11,10,14)  =     -0.303552     0.000000     0.009307    -0.294245
	  149 D(14,10,9,15)   =     -0.005195     0.000000     0.013192     0.007997
	  150 D(15,9,8,16)    =     -0.971336    -0.000000    -0.023104    -0.994440
	  151 D(16,8,7,17)    =     -1.511244    -0.000000    -0.016592    -1.527837
	  152 D(18,1,2,25)    =     35.482845     0.000000     0.008330    35.491175
	  153 D(18,1,2,26)    =    155.983154     0.000000     0.007893   155.991047
	  154 D(18,1,5,20)    =    -34.977947     0.000000     0.001789   -34.976157
	  155 D(18,1,5,21)    =   -155.282909     0.000000     0.001295  -155.281613
	  156 D(19,1,2,25)    =    -84.811023     0.000000     0.007162   -84.803861
	  157 D(19,1,2,26)    =     35.689286    -0.000000     0.006725    35.696011
	  158 D(19,1,5,20)    =     85.456278     0.000000     0.002529    85.458807
	  159 D(19,1,5,21)    =    -34.848684     0.000000     0.002035   -34.846649
	  160 R(7,12)         =      3.266004    -0.000038    -0.000970     3.265034
	 ---------------------------------------------------------------------------
	Successfully symmetrized geometry.

  ==> Convergence Check <==

  Measures of convergence in internal coordinates in au.
  Criteria marked as inactive (o), active & met (*), and active & unmet ( ).
  ---------------------------------------------------------------------------------------------
   Step     Total Energy     Delta E     MAX Force     RMS Force      MAX Disp      RMS Disp   
  ---------------------------------------------------------------------------------------------
    Convergence Criteria    1.00e-06 *    3.00e-04 *             o    1.20e-03 *             o
  ---------------------------------------------------------------------------------------------
      9    -578.45888152   -2.25e-07 *    4.02e-05 *    5.03e-06 o    3.12e-03      7.13e-04 o  ~
  ---------------------------------------------------------------------------------------------


  **** Optimization is complete! (in 9 steps) ****

  ==> Optimization Summary <==

  Measures of convergence in internal coordinates in au.
  --------------------------------------------------------------------------------------------------------------- ~
   Step         Total Energy             Delta E       MAX Force       RMS Force        MAX Disp        RMS Disp  ~
  --------------------------------------------------------------------------------------------------------------- ~
      1    -578.449725649904   -578.449725649904      0.08237684      0.00891043      0.27394807      0.03039503  ~
      2    -578.451649350163     -0.001923700259      0.04360606      0.00507305      0.08602109      0.00979803  ~
      3    -578.457370844377     -0.005721494214      0.02369022      0.00250872      0.04268586      0.00494458  ~
      4    -578.458622876502     -0.001252032126      0.01054522      0.00111243      0.04201073      0.00519426  ~
      5    -578.458794074309     -0.000171197806      0.00641521      0.00069749      0.02644188      0.00448456  ~
      6    -578.458864348617     -0.000070274308      0.00127595      0.00017138      0.03995734      0.00656417  ~
      7    -578.458855492263      0.000008856354      0.00113017      0.00016118      0.02353589      0.00381187  ~
      8    -578.458881294226     -0.000025801963      0.00006893      0.00001351      0.00189862      0.00045647  ~
      9    -578.458881519252     -0.000000225026      0.00004023      0.00000503      0.00312064      0.00071325  ~
  --------------------------------------------------------------------------------------------------------------- ~

	Writing optimization data to binary file.
	Final energy is   -578.4588815192516
	Final (previous) structure:
	Cartesian Geometry (in Angstrom)
	    C     3.8761485937   0.9411562673   0.4444237709
	    C     2.4105093421   1.4112156940   0.4905809932
	    C     1.6628065872   0.2274902894  -0.1040019960
	    C     2.5119823520  -0.5545157254  -0.8316852056
	    C     3.9247483372  -0.0084708797  -0.7661625263
	    C     0.2085774391   0.0606745938   0.0559375052
	    C    -0.3807472808  -1.2121460108   0.2494259794
	    C    -1.7613353665  -1.3535928384   0.4081999781
	    C    -2.6036166424  -0.2242243293   0.3898582629
	    C    -2.0358988047   1.0527800274   0.2227821700
	    C    -0.6458724045   1.1820149791   0.0664133827
	    C     2.1822309620  -1.7252066113  -1.7088118876
	    H    -0.2227747275   2.1828728450  -0.0648722153
	    H    -2.6547832897   1.9518109742   0.2142489916
	    O    -3.9364717055  -0.4782274839   0.5538506172
	    H    -2.2173530459  -2.3350459346   0.5654049843
	    H     0.2589390541  -2.0973903343   0.3078547365
	    H     4.0909615235   0.3634335341   1.3591312410
	    H     4.6009688790   1.7683157298   0.3842906947
	    H     4.6862908281  -0.8017568471  -0.6662812014
	    H     4.1555907581   0.5388736029  -1.7024711586
	    H     1.0998485462  -1.8245066195  -1.8766414172
	    H     2.6782794537  -1.6100706708  -2.6885309275
	    H     2.5542859622  -2.6706682943  -1.2749289411
	    H     2.0667470680   1.6668704472   1.5067383989
	    H     2.2637697402   2.3105463700  -0.1394866082
	    C    -4.7953457794   0.6515465936   0.5485118827
	    H    -5.8104703342   0.2592323859   0.6893310502
	    H    -4.5566072804   1.3481199648   1.3712348965
	    H    -4.7449589337   1.1963234838  -0.4105041012
	Saving final (previous) structure.
	Cleaning optimization helper files.
			--------------------------
			 OPTKING Finished Execution 
			--------------------------

    Final optimized geometry and variables:
    Molecular point group: c1
    Full point group: C1

    Geometry (in Angstrom), charge = 0, multiplicity = 1:

    C            3.876148608943     0.941156271036     0.444423772690
    C            2.410509351539     1.411215699571     0.490580995100
    C            1.662806593762     0.227490290244    -0.104001996436
    C            2.511982361913    -0.554515727548    -0.831685208826
    C            3.924748352612    -0.008470879724    -0.766162529291
    C            0.208577439923     0.060674594076     0.055937505383
    C           -0.380747282331    -1.212146015567     0.249425980351
    C           -1.761335373419    -1.353592843716     0.408199979656
    C           -2.603616652638    -0.224224330186     0.389858264455
    C           -2.035898812742     1.052780031521     0.222782170884
    C           -0.645872407043     1.182014983774     0.066413382939
    C            2.182230970531    -1.725206618062    -1.708811894350
    H           -0.222774728375     2.182872853614    -0.064872215556
    H           -2.654783300112     1.951810981850     0.214248992462
    O           -3.936471720939    -0.478227485785     0.553850619367
    H           -2.217353054614    -2.335045943822     0.565404986495
    H            0.258939055072    -2.097390342556     0.307854737667
    H            4.090961539627     0.363433535482     1.359131246319
    H            4.600968897067     1.768315736776     0.384290696188
    H            4.686290846478    -0.801756850290    -0.666281204033
    H            4.155590774434     0.538873605030    -1.702471165245
    H            1.099848550573    -1.824506626634    -1.876641424610
    H            2.678279464221    -1.610070677116    -2.688530938078
    H            2.554285972264    -2.670668304789    -1.274928946089
    H            2.066747076159     1.666870453734     1.506738404791
    H            2.263769749080     2.310546379098    -0.139486608706
    C           -4.795345798262     0.651546596120     0.548511884885
    H           -5.810470357076     0.259232386960     0.689331052860
    H           -4.556607298347     1.348119970062     1.371234901898
    H           -4.744958952368     1.196323488509    -0.410504102847

	Removing binary optimization data file.
	Cleaning optimization helper files.


Properties will be evaluated at   0.000000,   0.000000,   0.000000 [a0]
OEProp: No title given, name of density matrix used for the following properties is 'DF-MP2 relaxed density'
  Mulliken Charges: (a.u.)
   Center  Symbol    Alpha    Beta     Spin     Total
       1     C     3.02657  3.02657  0.00000 -0.05313
       2     C     3.00258  3.00258  0.00000 -0.00515
       3     C     3.02872  3.02872  0.00000 -0.05743
       4     C     3.10770  3.10770  0.00000 -0.21540
       5     C     3.00321  3.00321  0.00000 -0.00642
       6     C     3.04370  3.04370  0.00000 -0.08740
       7     C     3.00043  3.00043  0.00000 -0.00087
       8     C     3.00165  3.00165  0.00000 -0.00331
       9     C     2.93038  2.93038  0.00000  0.13923
      10     C     3.03355  3.03355  0.00000 -0.06710
      11     C     3.00290  3.00290  0.00000 -0.00580
      12     C     3.00307  3.00307  0.00000 -0.00615
      13     H     0.49732  0.49732  0.00000  0.00536
      14     H     0.49070  0.49070  0.00000  0.01860
      15     O     4.15762  4.15762  0.00000 -0.31525
      16     H     0.48895  0.48895  0.00000  0.02211
      17     H     0.49474  0.49474  0.00000  0.01053
      18     H     0.47896  0.47896  0.00000  0.04207
      19     H     0.48550  0.48550  0.00000  0.02901
      20     H     0.48224  0.48224  0.00000  0.03552
      21     H     0.47732  0.47732  0.00000  0.04536
      22     H     0.47216  0.47216  0.00000  0.05568
      23     H     0.47619  0.47619  0.00000  0.04761
      24     H     0.47277  0.47277  0.00000  0.05446
      25     H     0.47940  0.47940  0.00000  0.04120
      26     H     0.47564  0.47564  0.00000  0.04872
      27     C     2.95961  2.95961  0.00000  0.08078
      28     H     0.46900  0.46900  0.00000  0.06199
      29     H     0.47871  0.47871  0.00000  0.04259
      30     H     0.47870  0.47870  0.00000  0.04259

   Total alpha = 51.00000, Total beta = 51.00000, Total charge = -0.00000

    Molecular point group: c1
    Full point group: C1

    Geometry (in Angstrom), charge = 0, multiplicity = 1:

       Center              X                  Y                   Z               Mass       
    ------------   -----------------  -----------------  -----------------  -----------------
         C            3.876148608943     0.941156271036     0.444423772690    12.000000000000
         C            2.410509351539     1.411215699571     0.490580995100    12.000000000000
         C            1.662806593762     0.227490290244    -0.104001996436    12.000000000000
         C            2.511982361913    -0.554515727548    -0.831685208826    12.000000000000
         C            3.924748352612    -0.008470879724    -0.766162529291    12.000000000000
         C            0.208577439923     0.060674594076     0.055937505383    12.000000000000
         C           -0.380747282331    -1.212146015567     0.249425980351    12.000000000000
         C           -1.761335373419    -1.353592843716     0.408199979656    12.000000000000
         C           -2.603616652638    -0.224224330186     0.389858264455    12.000000000000
         C           -2.035898812742     1.052780031521     0.222782170884    12.000000000000
         C           -0.645872407043     1.182014983774     0.066413382939    12.000000000000
         C            2.182230970531    -1.725206618062    -1.708811894350    12.000000000000
         H           -0.222774728375     2.182872853614    -0.064872215556     1.007825032230
         H           -2.654783300112     1.951810981850     0.214248992462     1.007825032230
         O           -3.936471720939    -0.478227485785     0.553850619367    15.994914619570
         H           -2.217353054614    -2.335045943822     0.565404986495     1.007825032230
         H            0.258939055072    -2.097390342556     0.307854737667     1.007825032230
         H            4.090961539627     0.363433535482     1.359131246319     1.007825032230
         H            4.600968897067     1.768315736776     0.384290696188     1.007825032230
         H            4.686290846478    -0.801756850290    -0.666281204033     1.007825032230
         H            4.155590774434     0.538873605030    -1.702471165245     1.007825032230
         H            1.099848550573    -1.824506626634    -1.876641424610     1.007825032230
         H            2.678279464221    -1.610070677116    -2.688530938078     1.007825032230
         H            2.554285972264    -2.670668304789    -1.274928946089     1.007825032230
         H            2.066747076159     1.666870453734     1.506738404791     1.007825032230
         H            2.263769749080     2.310546379098    -0.139486608706     1.007825032230
         C           -4.795345798262     0.651546596120     0.548511884885    12.000000000000
         H           -5.810470357076     0.259232386960     0.689331052860     1.007825032230
         H           -4.556607298347     1.348119970062     1.371234901898     1.007825032230
         H           -4.744958952368     1.196323488509    -0.410504102847     1.007825032230



  Variable Map:
  ----------------------------------------------------------------------------
  "CURRENT CORRELATION ENERGY"           =>      -1.975471058592
  "CURRENT DIPOLE X"                     =>      -0.326164402698
  "CURRENT DIPOLE Y"                     =>       1.199422727940
  "CURRENT DIPOLE Z"                     =>      -0.249314935049
  "CURRENT ENERGY"                       =>    -578.458881519252
  "CURRENT REFERENCE ENERGY"             =>    -576.483410460659
  "CUSTOM SCS-MP2 CORRELATION ENERGY"    =>      -1.926500775501
  "CUSTOM SCS-MP2 TOTAL ENERGY"          =>    -578.409911236161
  "HF TOTAL ENERGY"                      =>    -576.483410460660
  "MP2 CORRELATION ENERGY"               =>      -1.975471058592
  "MP2 DOUBLES ENERGY"                   =>      -1.975471058592
  "MP2 OPPOSITE-SPIN CORRELATION ENERGY" =>      -1.463088949197
  "MP2 SAME-SPIN CORRELATION ENERGY"     =>      -0.512382109395
  "MP2 SINGLES ENERGY"                   =>      -0.000000000000
  "MP2 TOTAL ENERGY"                     =>    -578.458881519252
  "NUCLEAR REPULSION ENERGY"             =>     842.777788985326
  "ONE-ELECTRON ENERGY"                  =>   -2454.532915789975
  "OPTIMIZATION ITERATIONS"              =>       9.000000000000
  "PCM POLARIZATION ENERGY"              =>       0.000000000000
  "PE ENERGY"                            =>       0.000000000000
  "SCF DIPOLE X"                         =>      -0.326164402698
  "SCF DIPOLE Y"                         =>       1.199422727940
  "SCF DIPOLE Z"                         =>      -0.249314935049
  "SCF ITERATION ENERGY"                 =>    -576.483410460659
  "SCF ITERATIONS"                       =>      12.000000000000
  "SCF TOTAL ENERGY"                     =>    -576.483410460659
  "SCS-MP2 CORRELATION ENERGY"           =>      -1.926500775501
  "SCS-MP2 TOTAL ENERGY"                 =>    -578.409911236161
  "TWO-ELECTRON ENERGY"                  =>    1035.271716343990



    Psi4 stopped on: Saturday, 11 December 2021 05:51PM
    Psi4 wall time for execution: 0:18:39.09

*** Psi4 exiting successfully. Buy a developer a beer!
