
    -----------------------------------------------------------------------
          Psi4: An Open-Source Ab Initio Electronic Structure Package
                               Psi4 1.4 release

                         Git: Rev {HEAD} 9485035 


    D. G. A. Smith, L. A. Burns, A. C. Simmonett, R. M. Parrish,
    M. C. Schieber, R. Galvelis, P. Kraus, H. Kruse, R. Di Remigio,
    A. Alenaizan, A. M. James, S. Lehtola, J. P. Misiewicz, M. Scheurer,
    R. A. Shaw, J. B. Schriber, Y. Xie, Z. L. Glick, D. A. Sirianni,
    J. S. O'Brien, J. M. Waldrop, A. Kumar, E. G. Hohenstein,
    B. P. Pritchard, B. R. Brooks, H. F. Schaefer III, A. Yu. Sokolov,
    K. Patkowski, A. E. DePrince III, U. Bozkaya, R. A. King,
    F. A. Evangelista, J. M. Turney, T. D. Crawford, C. D. Sherrill,
    J. Chem. Phys. 152(18) 184108 (2020). https://doi.org/10.1063/5.0006002

                            Additional Code Authors
    E. T. Seidl, C. L. Janssen, E. F. Valeev, M. L. Leininger,
    J. F. Gonthier, R. M. Richard, H. R. McAlexander, M. Saitow, X. Wang,
    P. Verma, and M. H. Lechner

             Previous Authors, Complete List of Code Contributors,
                       and Citations for Specific Modules
    https://github.com/psi4/psi4/blob/master/codemeta.json
    https://github.com/psi4/psi4/graphs/contributors
    http://psicode.org/psi4manual/master/introduction.html#citing-psifour

    -----------------------------------------------------------------------


    Psi4 started on: Saturday, 11 December 2021 05:32PM

    Process ID: 3173947
    Host:       skystd25.palmetto.clemson.edu
    PSIDATADIR: /home/maxbuskirk/.conda/envs/psifour/share/psi4
    Memory:     500.0 MiB
    Threads:    1
    
  ==> Input File <==

--------------------------------------------------------------------------
molecule mol {
0 1
 C     1.511290    -0.280966    -0.092593
 C    -0.000000     0.000000     0.000000
 C    -0.605968    -1.226439    -0.664954
 C     0.319060    -1.848819    -1.451355
 C     1.653820    -1.134973    -1.365322
 C    -2.027094    -1.583009    -0.507457
 C    -2.438238    -2.928025    -0.366876
 C    -3.794208    -3.253627    -0.211477
 C    -4.766046    -2.240264    -0.182231
 C    -4.369571    -0.897483    -0.299270
 C    -3.014139    -0.572542    -0.452922
 C     0.120138    -2.993149    -2.399423
 H    -2.715369     0.476287    -0.545440
 H    -5.118805    -0.100426    -0.268581
 O    -6.099328    -2.559996    -0.025611
 H    -4.091097    -4.301038    -0.099616
 H    -1.681648    -3.717845    -0.347819
 H     1.812305    -0.886836     0.778541
 H     2.127353     0.631886    -0.103726
 H     2.509857    -1.831293    -1.328975
 H     1.794964    -0.502471    -2.264944
 H    -0.944311    -3.224044    -2.552012
 H     0.568816    -2.749556    -3.378502
 H     0.625600    -3.906462    -2.037287
 H    -0.354002     0.144380     1.034324
 H    -0.267853     0.913064    -0.567140
 H    -6.616502    -1.766689    -0.027354
}

set scf_type df
set basis cc-pVDZ
set reference rhf

mol.update_geometry()
mol.symmetrize(1e-3)

e, wfn = optimize('mp2', return_wfn=True)
oeprop(wfn, "MULLIKEN_CHARGES")
mol.print_out()
print_variables()
--------------------------------------------------------------------------

Scratch directory: /local_scratch/pbs.4129833.pbs02/
gradient() will perform analytic gradient computation.

*** tstart() called on skystd25.palmetto.clemson.edu
*** at Sat Dec 11 17:32:33 2021

   => Loading Basis Set <=

    Name: CC-PVDZ
    Role: ORBITAL
    Keyword: BASIS
    atoms 1-12         entry C          line   138 file /home/maxbuskirk/.conda/envs/psifour/share/psi4/basis/cc-pvdz.gbs 
    atoms 13-14, 16-27 entry H          line    22 file /home/maxbuskirk/.conda/envs/psifour/share/psi4/basis/cc-pvdz.gbs 
    atoms 15           entry O          line   198 file /home/maxbuskirk/.conda/envs/psifour/share/psi4/basis/cc-pvdz.gbs 


         ---------------------------------------------------------
                                   SCF
               by Justin Turney, Rob Parrish, Andy Simmonett
                          and Daniel G. A. Smith
                              RHF Reference
                        1 Threads,    500 MiB Core
         ---------------------------------------------------------

  ==> Geometry <==

    Molecular point group: c1
    Full point group: C1

    Geometry (in Angstrom), charge = 0, multiplicity = 1:

       Center              X                  Y                   Z               Mass       
    ------------   -----------------  -----------------  -----------------  -----------------
         C            3.343161681350     1.381498185863     0.528507420066    12.000000000000
         C            1.831871681350     1.662464185863     0.621100420066    12.000000000000
         C            1.225903681350     0.436025185863    -0.043853579934    12.000000000000
         C            2.150931681350    -0.186354814137    -0.830254579934    12.000000000000
         C            3.485691681350     0.527491185863    -0.744221579934    12.000000000000
         C           -0.195222318650     0.079455185863     0.113643420066    12.000000000000
         C           -0.606366318650    -1.265560814137     0.254224420066    12.000000000000
         C           -1.962336318650    -1.591162814137     0.409623420066    12.000000000000
         C           -2.934174318650    -0.577799814137     0.438869420066    12.000000000000
         C           -2.537699318650     0.764981185863     0.321830420066    12.000000000000
         C           -1.182267318650     1.089922185863     0.168178420066    12.000000000000
         C            1.952009681350    -1.330684814137    -1.778322579934    12.000000000000
         H           -0.883497318650     2.138751185863     0.075660420066     1.007825032230
         H           -3.286933318650     1.562038185863     0.352519420066     1.007825032230
         O           -4.267456318650    -0.897531814137     0.595489420066    15.994914619570
         H           -2.259225318650    -2.638573814137     0.521484420066     1.007825032230
         H            0.150223681350    -2.055380814137     0.273281420066     1.007825032230
         H            3.644176681350     0.775628185863     1.399641420066     1.007825032230
         H            3.959224681350     2.294350185863     0.517374420066     1.007825032230
         H            4.341728681350    -0.168828814137    -0.707874579934     1.007825032230
         H            3.626835681350     1.159993185863    -1.643843579934     1.007825032230
         H            0.887560681350    -1.561579814137    -1.930911579934     1.007825032230
         H            2.400687681350    -1.087091814137    -2.757401579934     1.007825032230
         H            2.457471681350    -2.243997814137    -1.416186579934     1.007825032230
         H            1.477869681350     1.806844185863     1.655424420066     1.007825032230
         H            1.564018681350     2.575528185863     0.053960420066     1.007825032230
         H           -4.784630318650    -0.104224814137     0.593746420066     1.007825032230

  Running in c1 symmetry.

  Rotational constants: A =      0.06639  B =      0.01409  C =      0.01232 [cm^-1]
  Rotational constants: A =   1990.39664  B =    422.52470  C =    369.24234 [MHz]
  Nuclear repulsion =  744.703870898503169

  Charge       = 0
  Multiplicity = 1
  Electrons    = 94
  Nalpha       = 47
  Nbeta        = 47

  ==> Algorithm <==

  SCF Algorithm Type is DF.
  DIIS enabled.
  MOM disabled.
  Fractional occupation disabled.
  Guess Type is SAD.
  Energy threshold   = 1.00e-10
  Density threshold  = 1.00e-10
  Integral threshold = 1.00e-12

  ==> Primary Basis <==

  Basis Set: CC-PVDZ
    Blend: CC-PVDZ
    Number of shells: 120
    Number of basis functions: 252
    Number of Cartesian functions: 265
    Spherical Harmonics?: true
    Max angular momentum: 2

   => Loading Basis Set <=

    Name: (CC-PVDZ AUX)
    Role: JKFIT
    Keyword: DF_BASIS_SCF
    atoms 1-12         entry C          line   121 file /home/maxbuskirk/.conda/envs/psifour/share/psi4/basis/cc-pvdz-jkfit.gbs 
    atoms 13-14, 16-27 entry H          line    51 file /home/maxbuskirk/.conda/envs/psifour/share/psi4/basis/cc-pvdz-jkfit.gbs 
    atoms 15           entry O          line   221 file /home/maxbuskirk/.conda/envs/psifour/share/psi4/basis/cc-pvdz-jkfit.gbs 

  ==> Integral Setup <==

  ==> DiskDFJK: Density-Fitted J/K Matrices <==

    J tasked:                  Yes
    K tasked:                  Yes
    wK tasked:                  No
    OpenMP threads:              1
    Integrals threads:           1
    Memory [MiB]:              375
    Algorithm:                Core
    Integral Cache:           NONE
    Schwarz Cutoff:          1E-12
    Fitting Condition:       1E-10

   => Auxiliary Basis Set <=

  Basis Set: (CC-PVDZ AUX)
    Blend: CC-PVDZ-JKFIT
    Number of shells: 438
    Number of basis functions: 1232
    Number of Cartesian functions: 1403
    Spherical Harmonics?: true
    Max angular momentum: 3

  Minimum eigenvalue in the overlap matrix is 3.4315450168E-04.
  Reciprocal condition number of the overlap matrix is 5.3160727989E-05.
    Using symmetric orthogonalization.

  ==> Pre-Iterations <==

  SCF Guess: Superposition of Atomic Densities via on-the-fly atomic UHF (no occupation information).

   -------------------------
    Irrep   Nso     Nmo    
   -------------------------
     A        252     252 
   -------------------------
    Total     252     252
   -------------------------

  ==> Iterations <==

                           Total Energy        Delta E     RMS |[F,P]|

   @DF-RHF iter SAD:  -536.68113900823971   -5.36681e+02   0.00000e+00 
   @DF-RHF iter   1:  -537.17627212435707   -4.95133e-01   2.55028e-03 DIIS
   @DF-RHF iter   2:  -537.41614334043493   -2.39871e-01   1.11430e-03 DIIS
   @DF-RHF iter   3:  -537.45661462871897   -4.04713e-02   2.83476e-04 DIIS
   @DF-RHF iter   4:  -537.46056463364175   -3.95000e-03   1.18262e-04 DIIS
   @DF-RHF iter   5:  -537.46109915570730   -5.34522e-04   2.22966e-05 DIIS
   @DF-RHF iter   6:  -537.46112688584867   -2.77301e-05   9.47255e-06 DIIS
   @DF-RHF iter   7:  -537.46113115690434   -4.27106e-06   2.48234e-06 DIIS
   @DF-RHF iter   8:  -537.46113172367347   -5.66769e-07   1.04116e-06 DIIS
   @DF-RHF iter   9:  -537.46113182626550   -1.02592e-07   4.44478e-07 DIIS
   @DF-RHF iter  10:  -537.46113185150080   -2.52353e-08   2.04604e-07 DIIS
   @DF-RHF iter  11:  -537.46113185917238   -7.67159e-09   8.94291e-08 DIIS
   @DF-RHF iter  12:  -537.46113186057642   -1.40403e-09   3.67893e-08 DIIS
   @DF-RHF iter  13:  -537.46113186077469   -1.98270e-10   1.28467e-08 DIIS
   @DF-RHF iter  14:  -537.46113186079219   -1.75078e-11   4.85583e-09 DIIS
   @DF-RHF iter  15:  -537.46113186079435   -2.16005e-12   1.73780e-09 DIIS
   @DF-RHF iter  16:  -537.46113186079424    1.13687e-13   8.76272e-10 DIIS
   @DF-RHF iter  17:  -537.46113186079458   -3.41061e-13   3.68754e-10 DIIS
   @DF-RHF iter  18:  -537.46113186079504   -4.54747e-13   1.42426e-10 DIIS
   @DF-RHF iter  19:  -537.46113186079356    1.47793e-12   6.52105e-11 DIIS
  Energy and wave function converged.


  ==> Post-Iterations <==

    Orbital Energies [Eh]
    ---------------------

    Doubly Occupied:                                                      

       1A    -20.585611     2A    -11.307519     3A    -11.248002  
       4A    -11.246542     5A    -11.241187     6A    -11.240280  
       7A    -11.237624     8A    -11.232381     9A    -11.228785  
      10A    -11.228417    11A    -11.227715    12A    -11.227489  
      13A    -11.225211    14A     -1.399783    15A     -1.156699  
      16A     -1.126295    17A     -1.023959    18A     -1.017013  
      19A     -1.004256    20A     -0.940720    21A     -0.899005  
      22A     -0.842324    23A     -0.822377    24A     -0.779123  
      25A     -0.728680    26A     -0.713291    27A     -0.653252  
      28A     -0.644049    29A     -0.637008    30A     -0.616968  
      31A     -0.587289    32A     -0.581759    33A     -0.581116  
      34A     -0.570655    35A     -0.563559    36A     -0.548213  
      37A     -0.539542    38A     -0.504619    39A     -0.493626  
      40A     -0.488122    41A     -0.477479    42A     -0.474882  
      43A     -0.462258    44A     -0.459350    45A     -0.351399  
      46A     -0.338503    47A     -0.279582  

    Virtual:                                                              

      48A      0.125123    49A      0.127984    50A      0.177972  
      51A      0.181325    52A      0.199150    53A      0.201279  
      54A      0.206120    55A      0.219344    56A      0.232859  
      57A      0.244573    58A      0.259535    59A      0.268564  
      60A      0.271722    61A      0.286888    62A      0.292047  
      63A      0.300938    64A      0.319572    65A      0.342759  
      66A      0.365821    67A      0.391469    68A      0.396641  
      69A      0.409038    70A      0.420046    71A      0.433228  
      72A      0.443320    73A      0.472211    74A      0.506550  
      75A      0.520499    76A      0.542810    77A      0.579911  
      78A      0.597905    79A      0.629473    80A      0.633993  
      81A      0.643014    82A      0.661813    83A      0.669489  
      84A      0.674768    85A      0.691639    86A      0.698662  
      87A      0.708530    88A      0.718421    89A      0.726320  
      90A      0.739977    91A      0.745399    92A      0.748536  
      93A      0.756974    94A      0.774445    95A      0.785296  
      96A      0.804824    97A      0.815585    98A      0.831648  
      99A      0.838750   100A      0.842538   101A      0.858743  
     102A      0.862306   103A      0.870375   104A      0.879170  
     105A      0.883770   106A      0.885778   107A      0.888991  
     108A      0.897913   109A      0.901279   110A      0.912759  
     111A      0.917905   112A      0.929219   113A      0.933286  
     114A      0.933515   115A      0.943992   116A      0.948541  
     117A      0.957359   118A      0.965525   119A      0.985421  
     120A      0.997339   121A      1.015761   122A      1.024779  
     123A      1.041424   124A      1.065262   125A      1.115750  
     126A      1.129327   127A      1.136625   128A      1.154883  
     129A      1.177934   130A      1.188622   131A      1.210840  
     132A      1.238448   133A      1.262220   134A      1.272148  
     135A      1.280836   136A      1.287780   137A      1.304560  
     138A      1.316388   139A      1.323795   140A      1.346218  
     141A      1.350309   142A      1.363630   143A      1.381136  
     144A      1.401010   145A      1.436133   146A      1.461936  
     147A      1.481281   148A      1.496195   149A      1.500505  
     150A      1.518543   151A      1.554308   152A      1.567847  
     153A      1.578612   154A      1.605918   155A      1.610047  
     156A      1.627568   157A      1.650541   158A      1.687906  
     159A      1.705801   160A      1.729199   161A      1.745509  
     162A      1.765064   163A      1.773382   164A      1.791371  
     165A      1.809299   166A      1.812181   167A      1.832425  
     168A      1.845507   169A      1.854216   170A      1.869846  
     171A      1.879320   172A      1.885858   173A      1.891373  
     174A      1.903373   175A      1.912154   176A      1.915292  
     177A      1.927873   178A      1.935299   179A      1.940286  
     180A      1.946762   181A      1.969594   182A      1.973539  
     183A      1.986238   184A      1.997177   185A      2.018670  
     186A      2.028859   187A      2.030610   188A      2.035575  
     189A      2.048439   190A      2.060585   191A      2.065213  
     192A      2.077408   193A      2.090909   194A      2.101412  
     195A      2.112988   196A      2.120111   197A      2.133011  
     198A      2.142084   199A      2.159345   200A      2.188517  
     201A      2.192293   202A      2.218156   203A      2.241924  
     204A      2.257762   205A      2.268481   206A      2.276655  
     207A      2.297327   208A      2.314902   209A      2.342473  
     210A      2.354478   211A      2.379812   212A      2.398778  
     213A      2.406853   214A      2.425826   215A      2.433603  
     216A      2.458297   217A      2.470638   218A      2.471061  
     219A      2.501964   220A      2.524153   221A      2.532923  
     222A      2.536288   223A      2.549223   224A      2.622104  
     225A      2.628643   226A      2.662220   227A      2.678393  
     228A      2.727079   229A      2.732050   230A      2.758870  
     231A      2.769967   232A      2.775019   233A      2.804386  
     234A      2.823288   235A      2.830847   236A      2.865687  
     237A      2.916243   238A      2.941504   239A      2.955569  
     240A      2.981369   241A      3.014219   242A      3.027628  
     243A      3.063287   244A      3.125858   245A      3.190906  
     246A      3.250976   247A      3.260189   248A      3.337572  
     249A      3.554862   250A      3.663295   251A      3.926617  
     252A      4.194286  

    Final Occupation by Irrep:
              A 
    DOCC [    47 ]

  @DF-RHF Final Energy:  -537.46113186079356

   => Energetics <=

    Nuclear Repulsion Energy =            744.7038708985031690
    One-Electron Energy =               -2206.7629667083774621
    Two-Electron Energy =                 924.5979639490806221
    Total Energy =                       -537.4611318607935573

Computation Completed


Properties will be evaluated at   0.000000,   0.000000,   0.000000 [a0]

Properties computed using the SCF density matrix

  Nuclear Dipole Moment: [e a0]
     X:    12.4436      Y:     2.2957      Z:    -2.8219

  Electronic Dipole Moment: [e a0]
     X:   -12.3667      Y:    -1.7811      Z:     2.7016

  Dipole Moment: [e a0]
     X:     0.0769      Y:     0.5146      Z:    -0.1203     Total:     0.5341

  Dipole Moment: [D]
     X:     0.1954      Y:     1.3081      Z:    -0.3058     Total:     1.3575


*** tstop() called on skystd25.palmetto.clemson.edu at Sat Dec 11 17:32:57 2021
Module time:
	user time   =      23.30 seconds =       0.39 minutes
	system time =       0.71 seconds =       0.01 minutes
	total time  =         24 seconds =       0.40 minutes
Total time:
	user time   =      23.30 seconds =       0.39 minutes
	system time =       0.71 seconds =       0.01 minutes
	total time  =         24 seconds =       0.40 minutes

*** tstart() called on skystd25.palmetto.clemson.edu
*** at Sat Dec 11 17:32:57 2021


  //>>>>>>>>>>>>>>>>>>>>>>>>>>>>>>>>>>>//
  //               DFMP2               //
  //<<<<<<<<<<<<<<<<<<<<<<<<<<<<<<<<<<<//

   => Loading Basis Set <=

    Name: (CC-PVDZ AUX)
    Role: RIFIT
    Keyword: DF_BASIS_MP2
    atoms 1-12         entry C          line   159 file /home/maxbuskirk/.conda/envs/psifour/share/psi4/basis/cc-pvdz-ri.gbs 
    atoms 13-14, 16-27 entry H          line    19 file /home/maxbuskirk/.conda/envs/psifour/share/psi4/basis/cc-pvdz-ri.gbs 
    atoms 15           entry O          line   235 file /home/maxbuskirk/.conda/envs/psifour/share/psi4/basis/cc-pvdz-ri.gbs 

	 --------------------------------------------------------
	                          DF-MP2                         
	      2nd-Order Density-Fitted Moller-Plesset Theory     
	              RMP2 Wavefunction,   1 Threads             
	                                                         
	        Rob Parrish, Justin Turney, Andy Simmonett,      
	           Ed Hohenstein, and C. David Sherrill          
	 --------------------------------------------------------

   => Auxiliary Basis Set <=

  Basis Set: (CC-PVDZ AUX)
    Blend: CC-PVDZ-RI
    Number of shells: 318
    Number of basis functions: 924
    Number of Cartesian functions: 1068
    Spherical Harmonics?: true
    Max angular momentum: 3

	 --------------------------------------------------------
	                 NBF =   252, NAUX =   924
	 --------------------------------------------------------
	   CLASS    FOCC     OCC    AOCC    AVIR     VIR    FVIR
	   PAIRS       0      47      47     205     205       0
	 --------------------------------------------------------


         ------------------------------------------------------------
                                     CPHF                           
                                  Rob Parrish                       
         ------------------------------------------------------------

  ==> Geometry <==

    Molecular point group: c1
    Full point group: C1

    Geometry (in Angstrom), charge = 0, multiplicity = 1:

       Center              X                  Y                   Z               Mass       
    ------------   -----------------  -----------------  -----------------  -----------------
         C            3.343161681350     1.381498185863     0.528507420066    12.000000000000
         C            1.831871681350     1.662464185863     0.621100420066    12.000000000000
         C            1.225903681350     0.436025185863    -0.043853579934    12.000000000000
         C            2.150931681350    -0.186354814137    -0.830254579934    12.000000000000
         C            3.485691681350     0.527491185863    -0.744221579934    12.000000000000
         C           -0.195222318650     0.079455185863     0.113643420066    12.000000000000
         C           -0.606366318650    -1.265560814137     0.254224420066    12.000000000000
         C           -1.962336318650    -1.591162814137     0.409623420066    12.000000000000
         C           -2.934174318650    -0.577799814137     0.438869420066    12.000000000000
         C           -2.537699318650     0.764981185863     0.321830420066    12.000000000000
         C           -1.182267318650     1.089922185863     0.168178420066    12.000000000000
         C            1.952009681350    -1.330684814137    -1.778322579934    12.000000000000
         H           -0.883497318650     2.138751185863     0.075660420066     1.007825032230
         H           -3.286933318650     1.562038185863     0.352519420066     1.007825032230
         O           -4.267456318650    -0.897531814137     0.595489420066    15.994914619570
         H           -2.259225318650    -2.638573814137     0.521484420066     1.007825032230
         H            0.150223681350    -2.055380814137     0.273281420066     1.007825032230
         H            3.644176681350     0.775628185863     1.399641420066     1.007825032230
         H            3.959224681350     2.294350185863     0.517374420066     1.007825032230
         H            4.341728681350    -0.168828814137    -0.707874579934     1.007825032230
         H            3.626835681350     1.159993185863    -1.643843579934     1.007825032230
         H            0.887560681350    -1.561579814137    -1.930911579934     1.007825032230
         H            2.400687681350    -1.087091814137    -2.757401579934     1.007825032230
         H            2.457471681350    -2.243997814137    -1.416186579934     1.007825032230
         H            1.477869681350     1.806844185863     1.655424420066     1.007825032230
         H            1.564018681350     2.575528185863     0.053960420066     1.007825032230
         H           -4.784630318650    -0.104224814137     0.593746420066     1.007825032230

  Nuclear repulsion =  744.703870898503169
  Reference energy  = -537.461131860793557

  ==> Basis Set <==

  Basis Set: CC-PVDZ
    Blend: CC-PVDZ
    Number of shells: 120
    Number of basis functions: 252
    Number of Cartesian functions: 265
    Spherical Harmonics?: true
    Max angular momentum: 2

  ==> CGRSolver (by Rob Parrish) <==

   Number of roots    =         1
   Preconditioning    =    JACOBI
   Convergence cutoff =     1E-06
   Maximum iterations =       100

  ==> CPHFRHamiltonian (by Rob Parrish) <== 

  ==> DiskDFJK: Density-Fitted J/K Matrices <==

    J tasked:                  Yes
    K tasked:                  Yes
    wK tasked:                  No
    OpenMP threads:              1
    Integrals threads:           1
    Memory [MiB]:              375
    Algorithm:                Core
    Integral Cache:           NONE
    Schwarz Cutoff:          1E-12
    Fitting Condition:       1E-10

   => Auxiliary Basis Set <=

  Basis Set: (CC-PVDZ AUX)
    Blend: CC-PVDZ-JKFIT
    Number of shells: 438
    Number of basis functions: 1232
    Number of Cartesian functions: 1403
    Spherical Harmonics?: true
    Max angular momentum: 3

  ==> CPHF Iterations <==

  => Iterations <=

             Iter  Converged  Remaining    Residual
  CGR           1          0          1   1.020E-01
  CGR           2          0          1   2.177E-02
  CGR           3          0          1   1.280E-02
  CGR           4          0          1   5.390E-03
  CGR           5          0          1   2.703E-03
  CGR           6          0          1   1.043E-03
  CGR           7          0          1   3.526E-04
  CGR           8          0          1   1.112E-04
  CGR           9          0          1   4.309E-05
  CGR          10          0          1   1.550E-05
  CGR          11          0          1   6.516E-06
  CGR          12          0          1   2.139E-06
  CGR          13          1          0   7.572E-07

    CGRSolver converged.

  ==> DFCorrGrad: Density-Fitted Correlated Gradients <==

    OpenMP threads:              1
    Integrals threads:           1
    Memory [GiB]:            0.366
    Schwarz Cutoff:          0E+00
    Fitting Condition:       1E-10

   => Auxiliary Basis Set <=

  Basis Set: (CC-PVDZ AUX)
    Blend: CC-PVDZ-JKFIT
    Number of shells: 438
    Number of basis functions: 1232
    Number of Cartesian functions: 1403
    Spherical Harmonics?: true
    Max angular momentum: 3

	-----------------------------------------------------------
	 ==================> DF-MP2 Energies <==================== 
	-----------------------------------------------------------
	 Reference Energy          =    -537.4611318607935573 [Eh]
	 Singles Energy            =      -0.0000000000000000 [Eh]
	 Same-Spin Energy          =      -0.4793831504156091 [Eh]
	 Opposite-Spin Energy      =      -1.3504592403613545 [Eh]
	 Correlation Energy        =      -1.8298423907769636 [Eh]
	 Total Energy              =    -539.2909742515705602 [Eh]
	-----------------------------------------------------------
	 ================> DF-SCS-MP2 Energies <================== 
	-----------------------------------------------------------
	 SCS Same-Spin Scale       =       0.3333333333333333 [-]
	 SCS Opposite-Spin Scale   =       1.2000000000000000 [-]
	 SCS Same-Spin Energy      =      -0.1597943834718697 [Eh]
	 SCS Opposite-Spin Energy  =      -1.6205510884336254 [Eh]
	 SCS Correlation Energy    =      -1.7803454719054952 [Eh]
	 SCS Total Energy          =    -539.2414773326991053 [Eh]
	-----------------------------------------------------------


  -Total Gradient:
     Atom            X                  Y                   Z
    ------   -----------------  -----------------  -----------------
       1        0.000008947962    -0.000103519124     0.000037522300
       2       -0.000081821058     0.000223397202     0.000067077856
       3        0.000326409194    -0.000092594834     0.000233760049
       4       -0.000090423163    -0.000310368784    -0.000180687358
       5       -0.000004661542     0.000194596705    -0.000017669263
       6       -0.002198684465    -0.001094859578     0.000232393868
       7        0.003634753407    -0.003971366654    -0.000084420867
       8        0.000576438570     0.004807422369    -0.000356731342
       9        0.013347491717    -0.008340096975    -0.000878276087
      10       -0.007327162528    -0.001154819111     0.000804522619
      11        0.000225424389     0.002140602175    -0.000258436607
      12       -0.000079482754    -0.000013261502    -0.000060147811
      13        0.000601381376     0.000068389382    -0.000042312620
      14        0.001099876843    -0.000531515496    -0.000104482750
      15       -0.020327129836     0.029119067338     0.000260652739
      16        0.002268571746    -0.001258836113    -0.000257356989
      17        0.001090188295     0.000358627897    -0.000085770525
      18        0.000016199069     0.000004074296    -0.000004536561
      19       -0.000066808044    -0.000034449601     0.000003038791
      20       -0.000096878364    -0.000043412294    -0.000051194747
      21       -0.000045836924    -0.000037327813     0.000027316284
      22        0.000000390510     0.000004656899    -0.000001769942
      23       -0.000011994960     0.000096622859    -0.000003800978
      24        0.000075906691    -0.000023906440     0.000125585654
      25        0.000007359629     0.000015327010    -0.000039134225
      26       -0.000030035766    -0.000095893209     0.000041458795
      27        0.007081580007    -0.019926556598     0.000593399714


*** tstop() called on skystd25.palmetto.clemson.edu at Sat Dec 11 17:34:08 2021
Module time:
	user time   =      68.54 seconds =       1.14 minutes
	system time =       2.08 seconds =       0.03 minutes
	total time  =         71 seconds =       1.18 minutes
Total time:
	user time   =      91.84 seconds =       1.53 minutes
	system time =       2.79 seconds =       0.05 minutes
	total time  =         95 seconds =       1.58 minutes

			-----------------------------------------
			 OPTKING 2.0: for geometry optimizations 
			  - R.A. King,  Bethel University        
			-----------------------------------------

	Internal coordinates to be generated automatically.
	Detected frag 1 with atoms:  1 2 3 4 5 6 7 8 9 10 11 12 13 14 15 16 17 18 19 20
	 21 22 23 24 25 26 27
	---Fragment 1 Bond Connectivity---
	 1 : 2 5 18 19
	 2 : 1 3 25 26
	 3 : 2 4 6
	 4 : 3 5 12
	 5 : 1 4 20 21
	 6 : 3 7 11
	 7 : 6 8 17
	 8 : 7 9 16
	 9 : 8 10 15
	 10 : 9 11 14
	 11 : 6 10 13
	 12 : 4 22 23 24
	 13 : 11
	 14 : 10
	 15 : 9 27
	 16 : 8
	 17 : 7
	 18 : 1
	 19 : 1
	 20 : 5
	 21 : 5
	 22 : 12
	 23 : 12
	 24 : 12
	 25 : 2
	 26 : 2
	 27 : 15

	---Fragment 1 Geometry and Gradient---
	 C           6.3176599709        2.6106532141        0.9987342792
	 C           3.4617357747        3.1416020047        1.1737096903
	 C           2.3166222139        0.8239681851       -0.0828712557
	 C           4.0646717923       -0.3521595609       -1.5689537705
	 C           6.5870026355        0.9968138749       -1.4063749627
	 C          -0.3689167158        0.1501485405        0.2147549399
	 C          -1.1458662740       -2.3915633338        0.4804145283
	 C          -3.7082782083       -3.0068619397        0.7740760785
	 C          -5.5447858666       -1.0918834041        0.8293430088
	 C          -4.7955567010        1.4456049324        0.6081713528
	 C          -2.2341614393        2.0596544293        0.3178111541
	 C           3.6887636920       -2.5146298580       -3.3605426388
	 H          -1.6695679648        4.0416539918        0.1429774725
	 H          -6.2114037649        2.9518243688        0.6661651578
	 O          -8.0643236946       -1.6960893176        1.1253119145
	 H          -4.2693171079       -4.9861818705        0.9854627326
	 H           0.2838816153       -3.8841068222        0.5164270391
	 H           6.8864958805        1.4657248465        2.6449389578
	 H           7.4818503169        4.3356934872        0.9776959582
	 H           8.2046781188       -0.3190402208       -1.3376890872
	 H           6.8537261398        2.1920694287       -3.1064141592
	 H           1.6772466075       -2.9509581718       -3.6488940586
	 H           4.5366422305       -2.0543058019       -5.2107338040
	 H           4.6439484388       -4.2405412948       -2.6762047786
	 H           2.7927689469        3.4144406627        3.1282987753
	 H           2.9555669629        4.8670428997        0.1019704155
	 H          -9.0416409138       -0.1969563542        1.1220181219
	             0.0000089480       -0.0001035191        0.0000375223
	            -0.0000818211        0.0002233972        0.0000670779
	             0.0003264092       -0.0000925948        0.0002337600
	            -0.0000904232       -0.0003103688       -0.0001806874
	            -0.0000046615        0.0001945967       -0.0000176693
	            -0.0021986845       -0.0010948596        0.0002323939
	             0.0036347534       -0.0039713667       -0.0000844209
	             0.0005764386        0.0048074224       -0.0003567313
	             0.0133474917       -0.0083400970       -0.0008782761
	            -0.0073271625       -0.0011548191        0.0008045226
	             0.0002254244        0.0021406022       -0.0002584366
	            -0.0000794828       -0.0000132615       -0.0000601478
	             0.0006013814        0.0000683894       -0.0000423126
	             0.0010998768       -0.0005315155       -0.0001044828
	            -0.0203271298        0.0291190673        0.0002606527
	             0.0022685717       -0.0012588361       -0.0002573570
	             0.0010901883        0.0003586279       -0.0000857705
	             0.0000161991        0.0000040743       -0.0000045366
	            -0.0000668080       -0.0000344496        0.0000030388
	            -0.0000968784       -0.0000434123       -0.0000511947
	            -0.0000458369       -0.0000373278        0.0000273163
	             0.0000003905        0.0000046569       -0.0000017699
	            -0.0000119950        0.0000966229       -0.0000038010
	             0.0000759067       -0.0000239064        0.0001255857
	             0.0000073596        0.0000153270       -0.0000391342
	            -0.0000300358       -0.0000958932        0.0000414588
	             0.0070815800       -0.0199265566        0.0005933997

	Previous optimization step data not found.  Starting new optimization.

	---Fragment 1 Intrafragment Coordinates---
	 - Coordinate -           - BOHR/RAD -       - ANG/DEG -
	 R(1,2)           =         2.910125	       1.539972
	 R(1,5)           =         2.908878	       1.539312
	 R(1,18)          =         2.084328	       1.102979
	 R(1,19)          =         2.081237	       1.101343
	 R(2,3)           =         2.874319	       1.521024
	 R(2,25)          =         2.083837	       1.102719
	 R(2,26)          =         2.093318	       1.107736
	 R(3,4)           =         2.578254	       1.364353
	 R(3,6)           =         2.784732	       1.473617
	 R(4,5)           =         2.865016	       1.516101
	 R(4,12)          =         2.833262	       1.499298
	 R(5,20)          =         2.086400	       1.104075
	 R(5,21)          =         2.095211	       1.108738
	 R(6,7)           =         2.671053	       1.413460
	 R(6,11)          =         2.671324	       1.413604
	 R(7,8)           =         2.651563	       1.403147
	 R(7,17)          =         2.067163	       1.093895
	 R(8,9)           =         2.653857	       1.404361
	 R(8,16)          =         2.068129	       1.094407
	 R(9,10)          =         2.655016	       1.404974
	 R(9,15)          =         2.607822	       1.380000
	 R(10,11)         =         2.649927	       1.402281
	 R(10,14)         =         2.068014	       1.094346
	 R(11,13)         =         2.068249	       1.094470
	 R(12,22)         =         2.078396	       1.099840
	 R(12,23)         =         2.086625	       1.104194
	 R(12,24)         =         2.087934	       1.104887
	 R(15,27)         =         1.789570	       0.946999
	 B(1,2,3)         =         1.790127	     102.566700
	 B(1,2,25)        =         1.977226	     113.286730
	 B(1,2,26)        =         1.935744	     110.909973
	 B(1,5,4)         =         1.799406	     103.098356
	 B(1,5,20)        =         1.976291	     113.233108
	 B(1,5,21)        =         1.945680	     111.479279
	 B(2,1,5)         =         1.815021	     103.993068
	 B(2,1,18)        =         1.897117	     108.696781
	 B(2,1,19)        =         1.980503	     113.474479
	 B(2,3,4)         =         1.928043	     110.468727
	 B(2,3,6)         =         2.132448	     122.180296
	 B(3,2,25)        =         1.968972	     112.813790
	 B(3,2,26)        =         1.922464	     110.149081
	 B(3,4,5)         =         1.927736	     110.451137
	 B(3,4,12)        =         2.242975	     128.512983
	 B(3,6,7)         =         2.119286	     121.426120
	 B(3,6,11)        =         2.099640	     120.300495
	 B(4,3,6)         =         2.220651	     127.233923
	 B(4,5,20)        =         1.968736	     112.800279
	 B(4,5,21)        =         1.912013	     109.550255
	 B(4,12,22)       =         1.956670	     112.108928
	 B(4,12,23)       =         1.916015	     109.779573
	 B(4,12,24)       =         1.942233	     111.281772
	 B(5,1,18)        =         1.899693	     108.844371
	 B(5,1,19)        =         1.981979	     113.559042
	 B(5,4,12)        =         2.108376	     120.801049
	 B(6,7,8)         =         2.109388	     120.859024
	 B(6,7,17)        =         2.080147	     119.183628
	 B(6,11,10)       =         2.110063	     120.897728
	 B(6,11,13)       =         2.084192	     119.415378
	 B(7,6,11)        =         2.063785	     118.246186
	 B(7,8,9)         =         2.098568	     120.239106
	 B(7,8,16)        =         2.089281	     119.706964
	 B(8,7,17)        =         2.093145	     119.928351
	 B(8,9,10)        =         2.085899	     119.513219
	 B(8,9,15)        =         2.098751	     120.249566
	 B(9,8,16)        =         2.095250	     120.048967
	 B(9,10,11)       =         2.098279	     120.222516
	 B(9,10,14)       =         2.095045	     120.037222
	 B(9,15,27)       =         1.910634	     109.471244
	 B(10,9,15)       =         2.098475	     120.233743
	 B(10,11,13)      =         2.088843	     119.681864
	 B(11,10,14)      =         2.089860	     119.740132
	 B(18,1,19)       =         1.886638	     108.096378
	 B(20,5,21)       =         1.862719	     106.725958
	 B(22,12,23)      =         1.892897	     108.455036
	 B(22,12,24)      =         1.890932	     108.342411
	 B(23,12,24)      =         1.861979	     106.683530
	 B(25,2,26)       =         1.869917	     107.138345
	 D(1,2,3,4)       =        -0.348852	     -19.987768
	 D(1,2,3,6)       =         2.856778	     163.681328
	 D(1,5,4,3)       =         0.300808	      17.235016
	 D(1,5,4,12)      =        -2.930014	    -167.877438
	 D(2,1,5,4)       =        -0.499803	     -28.636594
	 D(2,1,5,20)      =        -2.632586	    -150.836039
	 D(2,1,5,21)      =         1.549857	      88.800282
	 D(2,3,4,5)       =         0.031048	       1.778925
	 D(2,3,4,12)      =        -3.012567	    -172.607364
	 D(2,3,6,7)       =        -2.462500	    -141.090867
	 D(2,3,6,11)      =         0.645400	      36.978697
	 D(3,2,1,5)       =         0.514363	      29.470838
	 D(3,2,1,18)      =        -1.507311	     -86.362554
	 D(3,2,1,19)      =         2.676299	     153.340666
	 D(3,4,5,20)      =         2.438658	     139.724821
	 D(3,4,5,21)      =        -1.772435	    -101.553028
	 D(3,4,12,22)     =         0.167316	       9.586503
	 D(3,4,12,23)     =         2.272366	     130.196980
	 D(3,4,12,24)     =        -1.953574	    -111.931530
	 D(3,6,7,8)       =         3.136447	     179.705195
	 D(3,6,7,17)      =         0.029066	       1.665353
	 D(3,6,11,10)     =        -3.138209	    -179.806114
	 D(3,6,11,13)     =         0.017671	       1.012458
	 D(4,3,2,25)      =        -2.482003	    -142.208323
	 D(4,3,2,26)      =         1.712697	      98.130327
	 D(4,3,6,7)       =         0.754466	      43.227732
	 D(4,3,6,11)      =        -2.420819	    -138.702704
	 D(4,5,1,18)      =         1.520059	      87.092954
	 D(4,5,1,19)      =        -2.660781	    -152.451540
	 D(5,1,2,25)      =         2.641906	     151.370088
	 D(5,1,2,26)      =        -1.537774	     -88.107935
	 D(5,4,3,6)       =         3.104559	     177.878117
	 D(5,4,12,22)     =        -2.867367	    -164.288012
	 D(5,4,12,23)     =        -0.762317	     -43.677535
	 D(5,4,12,24)     =         1.294929	      74.193955
	 D(6,3,2,25)      =         0.723627	      41.460773
	 D(6,3,2,26)      =        -1.364858	     -78.200577
	 D(6,3,4,12)      =         0.060944	       3.491829
	 D(6,7,8,9)       =        -0.009298	      -0.532741
	 D(6,7,8,16)      =        -3.136753	    -179.722706
	 D(6,11,10,9)     =         0.012040	       0.689867
	 D(6,11,10,14)    =        -3.131840	    -179.441216
	 D(7,6,11,10)     =        -0.029252	      -1.676026
	 D(7,6,11,13)     =         3.126627	     179.142545
	 D(7,8,9,10)      =        -0.008597	      -0.492558
	 D(7,8,9,15)      =        -3.138386	    -179.816299
	 D(8,7,6,11)      =         0.027876	       1.597200
	 D(8,9,10,11)     =         0.007241	       0.414863
	 D(8,9,10,14)     =        -3.132057	    -179.453662
	 D(8,9,15,27)     =         3.141593	     180.000000
	 D(9,8,7,17)      =         3.097830	     177.492594
	 D(9,10,11,13)    =         3.139309	     179.869135
	 D(10,9,8,16)     =         3.118810	     178.694624
	 D(10,9,15,27)    =         0.011888	       0.681149
	 D(11,6,7,17)     =        -3.079505	    -176.442642
	 D(11,10,9,15)    =         3.137032	     179.738713
	 D(12,4,5,20)     =        -0.792164	     -45.387633
	 D(12,4,5,21)     =         1.279929	      73.334518
	 D(13,11,10,14)   =        -0.004572	      -0.261949
	 D(14,10,9,15)    =        -0.002266	      -0.129813
	 D(15,9,8,16)     =        -0.010980	      -0.629117
	 D(16,8,7,17)     =        -0.029625	      -1.697371
	 D(18,1,2,25)     =         0.620232	      35.536695
	 D(18,1,2,26)     =         2.723738	     156.058672
	 D(18,1,5,20)     =        -0.612724	     -35.106492
	 D(18,1,5,21)     =        -2.713466	    -155.470171
	 D(19,1,2,25)     =        -1.479343	     -84.760085
	 D(19,1,2,26)     =         0.624163	      35.761892
	 D(19,1,5,20)     =         1.489621	      85.349014
	 D(19,1,5,21)     =        -0.611121	     -35.014665
	 R(7,12)          =         6.175900	       3.268146

	Current energy   :      -539.2909742516

	Generating empirical Hessian (Schlegel '84) for each fragment.
	Taking RFO optimization step.
	Going to follow RFO solution 1.
	Using RFO vector 1.
	Norm of target step-size    0.10142
	Projected energy change by RFO approximation:        -0.0025834918

	Back-transformation to cartesian coordinates...
	Successfully converged to displaced geometry.

	--- Internal Coordinate Step in ANG or DEG, aJ/ANG or AJ/DEG ---
	 ---------------------------------------------------------------------------
	   Coordinate                Previous        Force       Change         New 
	   ----------                --------       ------       ------       ------
	    1 R(1,2)          =      1.539972     0.000366     0.000030     1.540002
	    2 R(1,5)          =      1.539312    -0.000042    -0.000015     1.539297
	    3 R(1,18)         =      1.102979     0.000012     0.000002     1.102981
	    4 R(1,19)         =      1.101343     0.000543     0.000103     1.101446
	    5 R(2,3)          =      1.521024     0.000019    -0.000005     1.521019
	    6 R(2,25)         =      1.102719     0.000305     0.000058     1.102777
	    7 R(2,26)         =      1.107736     0.000766     0.000149     1.107885
	    8 R(3,4)          =      1.364353    -0.001552    -0.000034     1.364320
	    9 R(3,6)          =      1.473617    -0.000286     0.000133     1.473749
	   10 R(4,5)          =      1.516101     0.000586     0.000155     1.516255
	   11 R(4,12)         =      1.499298     0.000157     0.000106     1.499403
	   12 R(5,20)         =      1.104075     0.000407     0.000078     1.104153
	   13 R(5,21)         =      1.108738     0.000406     0.000079     1.108817
	   14 R(6,7)          =      1.413460     0.003036     0.000419     1.413879
	   15 R(6,11)         =      1.413604    -0.010875    -0.001578     1.412025
	   16 R(7,8)          =      1.403147    -0.011503    -0.001719     1.401428
	   17 R(7,17)         =      1.093895    -0.004067    -0.000754     1.093141
	   18 R(8,9)          =      1.404361    -0.027465    -0.003923     1.400438
	   19 R(8,16)         =      1.094407    -0.004639    -0.000862     1.093545
	   20 R(9,10)         =      1.404974     0.021301     0.003109     1.408083
	   21 R(9,15)         =      1.380000    -0.088684    -0.011537     1.368463
	   22 R(10,11)        =      1.402281    -0.009479    -0.001247     1.401033
	   23 R(10,14)        =      1.094346     0.009417     0.001749     1.096095
	   24 R(11,13)        =      1.094470    -0.001922    -0.000357     1.094113
	   25 R(12,22)        =      1.099840     0.000009     0.000002     1.099842
	   26 R(12,23)        =      1.104194    -0.000163    -0.000031     1.104163
	   27 R(12,24)        =      1.104887    -0.000788    -0.000151     1.104735
	   28 R(15,27)        =      0.946999     0.169397     0.018556     0.965555
	   29 B(1,2,3)        =    102.566700     0.000006     0.043022   102.609722
	   30 B(1,2,25)       =    113.286730    -0.000003    -0.018234   113.268496
	   31 B(1,2,26)       =    110.909973    -0.000004    -0.025338   110.884635
	   32 B(1,5,4)        =    103.098356    -0.000009     0.000663   103.099019
	   33 B(1,5,20)       =    113.233108    -0.000002    -0.037033   113.196074
	   34 B(1,5,21)       =    111.479279     0.000001    -0.015385   111.463894
	   35 B(2,1,5)        =    103.993068    -0.000001     0.016820   104.009888
	   36 B(2,1,18)       =    108.696781    -0.000003    -0.030849   108.665931
	   37 B(2,1,19)       =    113.474479     0.000004     0.031743   113.506223
	   38 B(2,3,4)        =    110.468727    -0.000010    -0.041398   110.427329
	   39 B(2,3,6)        =    122.180296     0.000023     0.021653   122.201949
	   40 B(3,2,25)       =    112.813790    -0.000002    -0.012674   112.801116
	   41 B(3,2,26)       =    110.149081     0.000000     0.013374   110.162454
	   42 B(3,4,5)        =    110.451137     0.000015     0.050947   110.502083
	   43 B(3,4,12)       =    128.512983    -0.000032    -0.047740   128.465243
	   44 B(3,6,7)        =    121.426120     0.000076     0.282533   121.708652
	   45 B(3,6,11)       =    120.300495     0.000076     0.210915   120.511410
	   46 B(4,3,6)        =    127.233923    -0.000013     0.034641   127.268564
	   47 B(4,5,20)       =    112.800279     0.000009     0.055079   112.855358
	   48 B(4,5,21)       =    109.550255     0.000002     0.009060   109.559315
	   49 B(4,12,22)      =    112.108928    -0.000003    -0.016131   112.092797
	   50 B(4,12,23)      =    109.779573     0.000007     0.034901   109.814475
	   51 B(4,12,24)      =    111.281772     0.000011     0.050484   111.332255
	   52 B(5,1,18)       =    108.844371    -0.000000    -0.018730   108.825641
	   53 B(5,1,19)       =    113.559042    -0.000000     0.003983   113.563025
	   54 B(5,4,12)       =    120.801049     0.000017     0.008953   120.810002
	   55 B(6,7,8)        =    120.859024     0.000216     0.685379   121.544403
	   56 B(6,7,17)       =    119.183628    -0.000026     0.036003   119.219631
	   57 B(6,11,10)      =    120.897728     0.000015     0.067399   120.965127
	   58 B(6,11,13)      =    119.415378     0.000037     0.170044   119.585422
	   59 B(7,6,11)       =    118.246186    -0.000152    -0.496061   117.750126
	   60 B(7,8,9)        =    120.239106    -0.000096    -0.356129   119.882977
	   61 B(7,8,16)       =    119.706964     0.000248     1.103533   120.810497
	   62 B(8,7,17)       =    119.928351    -0.000189    -0.720046   119.208304
	   63 B(8,9,10)       =    119.513219    -0.000009    -0.022151   119.491068
	   64 B(8,9,15)       =    120.249566    -0.000850    -2.535730   117.713836
	   65 B(9,8,16)       =    120.048967    -0.000152    -0.748533   119.300433
	   66 B(9,10,11)      =    120.222516     0.000027     0.119221   120.341737
	   67 B(9,10,14)      =    120.037222    -0.000048    -0.220753   119.816470
	   68 B(9,15,27)      =    109.471244    -0.000678    -3.140803   106.330441
	   69 B(10,9,15)      =    120.233743     0.000859     2.558156   122.791899
	   70 B(10,11,13)     =    119.681864    -0.000051    -0.238135   119.443729
	   71 B(11,10,14)     =    119.740132     0.000022     0.101563   119.841694
	   72 B(18,1,19)      =    108.096378    -0.000000    -0.005970   108.090408
	   73 B(20,5,21)      =    106.725958    -0.000002    -0.010578   106.715380
	   74 B(22,12,23)     =    108.455036    -0.000002    -0.008605   108.446431
	   75 B(22,12,24)     =    108.342411    -0.000005    -0.024182   108.318229
	   76 B(23,12,24)     =    106.683530    -0.000009    -0.039587   106.643942
	   77 B(25,2,26)      =    107.138345     0.000002     0.000504   107.138849
	   78 D(1,2,3,4)      =    -19.987768     0.000000     0.005135   -19.982633
	   79 D(1,2,3,6)      =    163.681328    -0.000001    -0.237025   163.444303
	   80 D(1,5,4,3)      =     17.235016    -0.000000    -0.134761    17.100255
	   81 D(1,5,4,12)     =   -167.877438    -0.000000    -0.003482  -167.880920
	   82 D(2,1,5,4)      =    -28.636594     0.000001     0.139932   -28.496661
	   83 D(2,1,5,20)     =   -150.836039     0.000000     0.092658  -150.743381
	   84 D(2,1,5,21)     =     88.800282     0.000001     0.143744    88.944026
	   85 D(2,3,4,5)      =      1.778925    -0.000000     0.080426     1.859351
	   86 D(2,3,4,12)     =   -172.607364    -0.000001    -0.067944  -172.675308
	   87 D(2,3,6,7)      =   -141.090867    -0.000001    -0.131759  -141.222626
	   88 D(2,3,6,11)     =     36.978697    -0.000001    -0.232300    36.746397
	   89 D(3,2,1,5)      =     29.470838    -0.000000    -0.079078    29.391760
	   90 D(3,2,1,18)     =    -86.362554     0.000000    -0.052408   -86.414962
	   91 D(3,2,1,19)     =    153.340666     0.000000    -0.043712   153.296954
	   92 D(3,4,5,20)     =    139.724821    -0.000001    -0.149323   139.575497
	   93 D(3,4,5,21)     =   -101.553028     0.000000    -0.121488  -101.674516
	   94 D(3,4,12,22)    =      9.586503     0.000001     0.177109     9.763612
	   95 D(3,4,12,23)    =    130.196980     0.000001     0.179507   130.376488
	   96 D(3,4,12,24)    =   -111.931530     0.000001     0.183579  -111.747951
	   97 D(3,6,7,8)      =    179.705195     0.000001    -0.023548   179.681647
	   98 D(3,6,7,17)     =      1.665353     0.000000    -0.055075     1.610278
	   99 D(3,6,11,10)    =   -179.806114     0.000000     0.016016  -179.790097
	  100 D(3,6,11,13)    =      1.012458     0.000000     0.072512     1.084969
	  101 D(4,3,2,25)     =   -142.208323     0.000000     0.006408  -142.201915
	  102 D(4,3,2,26)     =     98.130327     0.000000     0.004888    98.135216
	  103 D(4,3,6,7)      =     43.227732    -0.000002    -0.413975    42.813757
	  104 D(4,3,6,11)     =   -138.702704    -0.000003    -0.514517  -139.217221
	  105 D(4,5,1,18)     =     87.092954     0.000000     0.104740    87.197693
	  106 D(4,5,1,19)     =   -152.451540     0.000000     0.086519  -152.365021
	  107 D(5,1,2,25)     =    151.370088    -0.000000    -0.076327   151.293761
	  108 D(5,1,2,26)     =    -88.107935    -0.000001    -0.106729   -88.214664
	  109 D(5,4,3,6)      =    177.878117     0.000002     0.337111   178.215229
	  110 D(5,4,12,22)    =   -164.288012    -0.000000     0.013687  -164.274325
	  111 D(5,4,12,23)    =    -43.677535    -0.000000     0.016086   -43.661449
	  112 D(5,4,12,24)    =     74.193955    -0.000000     0.020158    74.214112
	  113 D(6,3,2,25)     =     41.460773    -0.000001    -0.235753    41.225020
	  114 D(6,3,2,26)     =    -78.200577    -0.000001    -0.237272   -78.437849
	  115 D(6,3,4,12)     =      3.491829     0.000001     0.188741     3.680570
	  116 D(6,7,8,9)      =     -0.532741    -0.000000     0.014351    -0.518390
	  117 D(6,7,8,16)     =   -179.722706     0.000000     0.108529  -179.614176
	  118 D(6,11,10,9)    =      0.689867    -0.000000     0.012668     0.702535
	  119 D(6,11,10,14)   =   -179.441216    -0.000000     0.029090  -179.412126
	  120 D(7,6,11,10)    =     -1.676026     0.000000    -0.066406    -1.742431
	  121 D(7,6,11,13)    =    179.142545     0.000001    -0.009910   179.132635
	  122 D(7,8,9,10)     =     -0.492558    -0.000000    -0.085368    -0.577927
	  123 D(7,8,9,15)     =   -179.816299    -0.000002    -0.129383  -179.945682
	  124 D(8,7,6,11)     =      1.597200     0.000000     0.061567     1.658767
	  125 D(8,9,10,11)    =      0.414863     0.000001     0.072877     0.487740
	  126 D(8,9,10,14)    =   -179.453662     0.000001     0.056034  -179.397628
	  127 D(8,9,15,27)    =    180.000000    -0.000001    -0.210293   179.789707
	  128 D(9,8,7,17)     =    177.492594     0.000001     0.060598   177.553192
	  129 D(9,10,11,13)   =    179.869135     0.000000    -0.040442   179.828693
	  130 D(10,9,8,16)    =    178.694624    -0.000000    -0.163077   178.531547
	  131 D(10,9,15,27)   =      0.681149    -0.000001    -0.236792     0.444358
	  132 D(11,6,7,17)    =   -176.442642     0.000000     0.030040  -176.412602
	  133 D(11,10,9,15)   =    179.738713    -0.000001     0.083209   179.821922
	  134 D(12,4,5,20)    =    -45.387633    -0.000001    -0.018044   -45.405678
	  135 D(12,4,5,21)    =     73.334518     0.000000     0.009791    73.344309
	  136 D(13,11,10,14)  =     -0.261949    -0.000000    -0.024020    -0.285968
	  137 D(14,10,9,15)   =     -0.129813    -0.000000     0.066366    -0.063446
	  138 D(15,9,8,16)    =     -0.629117    -0.000002    -0.207092    -0.836209
	  139 D(16,8,7,17)    =     -1.697371     0.000001     0.154777    -1.542594
	  140 D(18,1,2,25)    =     35.536695     0.000000    -0.049656    35.487039
	  141 D(18,1,2,26)    =    156.058672    -0.000000    -0.080059   155.978613
	  142 D(18,1,5,20)    =    -35.106492    -0.000001     0.057465   -35.049027
	  143 D(18,1,5,21)    =   -155.470171     0.000000     0.108551  -155.361620
	  144 D(19,1,2,25)    =    -84.760085     0.000000    -0.040960   -84.801045
	  145 D(19,1,2,26)    =     35.761892    -0.000000    -0.071363    35.690529
	  146 D(19,1,5,20)    =     85.349014    -0.000001     0.039245    85.388259
	  147 D(19,1,5,21)    =    -35.014665    -0.000000     0.090331   -34.924334
	  148 R(7,12)         =      3.268146     0.001776     0.002119     3.270264
	 ---------------------------------------------------------------------------
	Successfully symmetrized geometry.

  ==> Convergence Check <==

  Measures of convergence in internal coordinates in au.
  Criteria marked as inactive (o), active & met (*), and active & unmet ( ).
  --------------------------------------------------------------------------------------------- ~
   Step     Total Energy     Delta E     MAX Force     RMS Force      MAX Disp      RMS Disp    ~
  --------------------------------------------------------------------------------------------- ~
    Convergence Criteria    1.00e-06 *    3.00e-04 *             o    1.20e-03 *             o  ~
  --------------------------------------------------------------------------------------------- ~
      1    -539.29097425   -5.39e+02      2.06e-02      2.51e-03 o    5.48e-02      8.34e-03 o  ~
  ---------------------------------------------------------------------------------------------

	Writing optimization data to binary file.
	Structure for next step:
	Cartesian Geometry (in Angstrom)
	    C     3.3401124411   1.3961333355   0.5231084293
	    C     1.8281741146   1.6738788300   0.6153399962
	    C     1.2239371383   0.4465406011  -0.0495179980
	    C     2.1504661789  -0.1738593183  -0.8356580188
	    C     3.4849619741   0.5406538837  -0.7483508080
	    C    -0.1955111499   0.0845741855   0.1119875612
	    C    -0.6083984806  -1.2606796958   0.2493566924
	    C    -1.9585509335  -1.6005234497   0.4093368522
	    C    -2.9316965063  -0.5941298159   0.4465547581
	    C    -2.5396999076   0.7536475329   0.3346072702
	    C    -1.1880366771   1.0868238694   0.1768269369
	    C     1.9532132839  -1.3194522814  -1.7827160067
	    H    -0.9001506575   2.1386780074   0.0884619076
	    H    -3.2959134204   1.5461692981   0.3730081368
	    O    -4.2361909582  -0.9758174997   0.6056101442
	    H    -2.2639175017  -2.6446333677   0.5208096140
	    H     0.1459368988  -2.0517363767   0.2622183263
	    H     3.6418358773   0.7917460485   1.3950297342
	    H     3.9547455756   2.3100642751   0.5112718634
	    H     4.3419078447  -0.1545355226  -0.7094946094
	    H     3.6273643864   1.1724101174  -1.6483958180
	    H     0.8889622333  -1.5504224729  -1.9365790775
	    H     2.4033068097  -1.0776328076  -2.7615496035
	    H     2.4577009683  -2.2326554416  -1.4194083776
	    H     1.4739403850   1.8175522754   1.6497451717
	    H     1.5590114930   2.5868027070   0.0483041353
	    H    -4.7579520672  -0.1633989090   0.6117821405
			--------------------------
			 OPTKING Finished Execution 
			--------------------------

    Structure for next step:
    Molecular point group: c1
    Full point group: C1

    Geometry (in Angstrom), charge = 0, multiplicity = 1:

    C            3.338212358926     1.400136373082     0.522770684761
    C            1.826274026493     1.677881868697     0.615002252031
    C            1.222037047840     0.450543635016    -0.049855744838
    C            2.148566092064    -0.169856286816    -0.835995768709
    C            3.483061892524     0.544656918003    -0.748688557571
    C           -0.197411245903     0.088577217926     0.111649814974
    C           -0.610298578302    -1.256676668620     0.249018946781
    C           -1.960451036441    -1.596520423846     0.408999107216
    C           -2.933596613144    -0.590126786117     0.446217013267
    C           -2.541600012846     0.757650567990     0.334269524924
    C           -1.189936777034     1.090826905786     0.176489190927
    C            1.951313196323    -1.315449254460    -1.783053760324
    H           -0.902050756335     2.142681047892     0.088124161306
    H           -3.297813528577     1.550172336265     0.372670391670
    O           -4.238091070088    -0.971814471382     0.605272399990
    H           -2.265817605858    -2.640630345976     0.520471869363
    H            0.144036804093    -2.047733352636     0.261880580728
    H            3.639935796336     0.795749083697     1.394691992999
    H            3.952845495832     2.314067316343     0.510934118799
    H            4.340007766493    -0.150532491050    -0.709832358800
    H            3.625464305411     1.176413154173    -1.648733571083
    H            0.887062141504    -1.546419446815    -1.936916831785
    H            2.401406723869    -1.073629779664    -2.761887360977
    H            2.455800882706    -2.228652418237    -1.419746129807
    H            1.472040295568     1.821555314718     1.649407431560
    H            1.557111403882     2.590805749336     0.047966388867
    H           -4.759852181222    -0.159395877470     0.611444396315


Scratch directory: /local_scratch/pbs.4129833.pbs02/
gradient() will perform analytic gradient computation.

*** tstart() called on skystd25.palmetto.clemson.edu
*** at Sat Dec 11 17:34:08 2021

   => Loading Basis Set <=

    Name: CC-PVDZ
    Role: ORBITAL
    Keyword: BASIS
    atoms 1-12         entry C          line   138 file /home/maxbuskirk/.conda/envs/psifour/share/psi4/basis/cc-pvdz.gbs 
    atoms 13-14, 16-27 entry H          line    22 file /home/maxbuskirk/.conda/envs/psifour/share/psi4/basis/cc-pvdz.gbs 
    atoms 15           entry O          line   198 file /home/maxbuskirk/.conda/envs/psifour/share/psi4/basis/cc-pvdz.gbs 


         ---------------------------------------------------------
                                   SCF
               by Justin Turney, Rob Parrish, Andy Simmonett
                          and Daniel G. A. Smith
                              RHF Reference
                        1 Threads,    500 MiB Core
         ---------------------------------------------------------

  ==> Geometry <==

    Molecular point group: c1
    Full point group: C1

    Geometry (in Angstrom), charge = 0, multiplicity = 1:

       Center              X                  Y                   Z               Mass       
    ------------   -----------------  -----------------  -----------------  -----------------
         C            3.338212358926     1.400136373082     0.522770684761    12.000000000000
         C            1.826274026493     1.677881868697     0.615002252031    12.000000000000
         C            1.222037047840     0.450543635016    -0.049855744838    12.000000000000
         C            2.148566092064    -0.169856286816    -0.835995768709    12.000000000000
         C            3.483061892524     0.544656918003    -0.748688557571    12.000000000000
         C           -0.197411245903     0.088577217926     0.111649814974    12.000000000000
         C           -0.610298578302    -1.256676668620     0.249018946781    12.000000000000
         C           -1.960451036441    -1.596520423846     0.408999107216    12.000000000000
         C           -2.933596613144    -0.590126786117     0.446217013267    12.000000000000
         C           -2.541600012846     0.757650567990     0.334269524924    12.000000000000
         C           -1.189936777034     1.090826905786     0.176489190927    12.000000000000
         C            1.951313196323    -1.315449254460    -1.783053760324    12.000000000000
         H           -0.902050756335     2.142681047892     0.088124161306     1.007825032230
         H           -3.297813528577     1.550172336265     0.372670391670     1.007825032230
         O           -4.238091070088    -0.971814471382     0.605272399990    15.994914619570
         H           -2.265817605858    -2.640630345976     0.520471869363     1.007825032230
         H            0.144036804093    -2.047733352636     0.261880580728     1.007825032230
         H            3.639935796336     0.795749083697     1.394691992999     1.007825032230
         H            3.952845495832     2.314067316343     0.510934118799     1.007825032230
         H            4.340007766493    -0.150532491050    -0.709832358800     1.007825032230
         H            3.625464305411     1.176413154173    -1.648733571083     1.007825032230
         H            0.887062141504    -1.546419446815    -1.936916831785     1.007825032230
         H            2.401406723869    -1.073629779664    -2.761887360977     1.007825032230
         H            2.455800882706    -2.228652418237    -1.419746129807     1.007825032230
         H            1.472040295568     1.821555314718     1.649407431560     1.007825032230
         H            1.557111403882     2.590805749336     0.047966388867     1.007825032230
         H           -4.759852181222    -0.159395877470     0.611444396315     1.007825032230

  Running in c1 symmetry.

  Rotational constants: A =      0.06643  B =      0.01411  C =      0.01232 [cm^-1]
  Rotational constants: A =   1991.53784  B =    422.94107  C =    369.37521 [MHz]
  Nuclear repulsion =  745.016294186050914

  Charge       = 0
  Multiplicity = 1
  Electrons    = 94
  Nalpha       = 47
  Nbeta        = 47

  ==> Algorithm <==

  SCF Algorithm Type is DF.
  DIIS enabled.
  MOM disabled.
  Fractional occupation disabled.
  Guess Type is READ.
  Energy threshold   = 1.00e-10
  Density threshold  = 1.00e-10
  Integral threshold = 1.00e-12

  ==> Primary Basis <==

  Basis Set: CC-PVDZ
    Blend: CC-PVDZ
    Number of shells: 120
    Number of basis functions: 252
    Number of Cartesian functions: 265
    Spherical Harmonics?: true
    Max angular momentum: 2

   => Loading Basis Set <=

    Name: (CC-PVDZ AUX)
    Role: JKFIT
    Keyword: DF_BASIS_SCF
    atoms 1-12         entry C          line   121 file /home/maxbuskirk/.conda/envs/psifour/share/psi4/basis/cc-pvdz-jkfit.gbs 
    atoms 13-14, 16-27 entry H          line    51 file /home/maxbuskirk/.conda/envs/psifour/share/psi4/basis/cc-pvdz-jkfit.gbs 
    atoms 15           entry O          line   221 file /home/maxbuskirk/.conda/envs/psifour/share/psi4/basis/cc-pvdz-jkfit.gbs 

   => Loading Basis Set <=

    Name: CC-PVDZ
    Role: ORBITAL
    Keyword: BASIS
    atoms 1-12         entry C          line   138 file /home/maxbuskirk/.conda/envs/psifour/share/psi4/basis/cc-pvdz.gbs 
    atoms 13-14, 16-27 entry H          line    22 file /home/maxbuskirk/.conda/envs/psifour/share/psi4/basis/cc-pvdz.gbs 
    atoms 15           entry O          line   198 file /home/maxbuskirk/.conda/envs/psifour/share/psi4/basis/cc-pvdz.gbs 

  Reading orbitals from file /local_scratch/pbs.4129833.pbs02/pOH.mol.3173947.180.npy, no projection.

  ==> Integral Setup <==

  ==> DiskDFJK: Density-Fitted J/K Matrices <==

    J tasked:                  Yes
    K tasked:                  Yes
    wK tasked:                  No
    OpenMP threads:              1
    Integrals threads:           1
    Memory [MiB]:              375
    Algorithm:                Core
    Integral Cache:           NONE
    Schwarz Cutoff:          1E-12
    Fitting Condition:       1E-10

   => Auxiliary Basis Set <=

  Basis Set: (CC-PVDZ AUX)
    Blend: CC-PVDZ-JKFIT
    Number of shells: 438
    Number of basis functions: 1232
    Number of Cartesian functions: 1403
    Spherical Harmonics?: true
    Max angular momentum: 3

  Minimum eigenvalue in the overlap matrix is 3.3654888341E-04.
  Reciprocal condition number of the overlap matrix is 5.2146587547E-05.
    Using symmetric orthogonalization.

  ==> Pre-Iterations <==

  SCF Guess: Orbitals guess was supplied from a previous computation.

   -------------------------------------------------------
    Irrep   Nso     Nmo     Nalpha   Nbeta   Ndocc  Nsocc
   -------------------------------------------------------
     A        252     252      47      47      47       0
   -------------------------------------------------------
    Total     252     252      47      47      47       0
   -------------------------------------------------------

  ==> Iterations <==

                           Total Energy        Delta E     RMS |[F,P]|

   @DF-RHF iter   0:  -537.45292604909207   -5.37453e+02   3.82282e-04 
   @DF-RHF iter   1:  -537.46148889404492   -8.56284e-03   4.79745e-05 DIIS
   @DF-RHF iter   2:  -537.46160249453885   -1.13600e-04   1.83729e-05 DIIS
   @DF-RHF iter   3:  -537.46161582386299   -1.33293e-05   8.65019e-06 DIIS
   @DF-RHF iter   4:  -537.46161936351371   -3.53965e-06   2.65841e-06 DIIS
   @DF-RHF iter   5:  -537.46161980633417   -4.42820e-07   9.97034e-07 DIIS
   @DF-RHF iter   6:  -537.46161991018607   -1.03852e-07   5.75297e-07 DIIS
   @DF-RHF iter   7:  -537.46161995774287   -4.75568e-08   2.29077e-07 DIIS
   @DF-RHF iter   8:  -537.46161996881085   -1.10680e-08   7.58660e-08 DIIS
   @DF-RHF iter   9:  -537.46161996970136   -8.90509e-10   3.16709e-08 DIIS
   @DF-RHF iter  10:  -537.46161996981823   -1.16870e-10   8.29773e-09 DIIS
   @DF-RHF iter  11:  -537.46161996982471   -6.48015e-12   3.24706e-09 DIIS
   @DF-RHF iter  12:  -537.46161996982607   -1.36424e-12   1.44419e-09 DIIS
   @DF-RHF iter  13:  -537.46161996982721   -1.13687e-12   5.85442e-10 DIIS
   @DF-RHF iter  14:  -537.46161996982710    1.13687e-13   2.87876e-10 DIIS
   @DF-RHF iter  15:  -537.46161996982630    7.95808e-13   1.10541e-10 DIIS
   @DF-RHF iter  16:  -537.46161996982642   -1.13687e-13   4.97249e-11 DIIS
  Energy and wave function converged.


  ==> Post-Iterations <==

    Orbital Energies [Eh]
    ---------------------

    Doubly Occupied:                                                      

       1A    -20.590640     2A    -11.305887     3A    -11.248072  
       4A    -11.245466     5A    -11.241676     6A    -11.239681  
       7A    -11.234429     8A    -11.232107     9A    -11.228442  
      10A    -11.228308    11A    -11.227570    12A    -11.227305  
      13A    -11.225027    14A     -1.404224    15A     -1.156337  
      16A     -1.125976    17A     -1.023159    18A     -1.017007  
      19A     -1.003799    20A     -0.940324    21A     -0.898620  
      22A     -0.843574    23A     -0.820508    24A     -0.778874  
      25A     -0.725491    26A     -0.712727    27A     -0.655787  
      28A     -0.643665    29A     -0.636723    30A     -0.615881  
      31A     -0.585767    32A     -0.585494    33A     -0.580617  
      34A     -0.571024    35A     -0.563516    36A     -0.551340  
      37A     -0.539478    38A     -0.505295    39A     -0.492099  
      40A     -0.488243    41A     -0.477501    42A     -0.474820  
      43A     -0.462015    44A     -0.459393    45A     -0.351062  
      46A     -0.338315    47A     -0.278801  

    Virtual:                                                              

      48A      0.125483    49A      0.129007    50A      0.177383  
      51A      0.180026    52A      0.199589    53A      0.201011  
      54A      0.206553    55A      0.219761    56A      0.233113  
      57A      0.244178    58A      0.259950    59A      0.268780  
      60A      0.272166    61A      0.287042    62A      0.292507  
      63A      0.301223    64A      0.319115    65A      0.343340  
      66A      0.366328    67A      0.391808    68A      0.396988  
      69A      0.410490    70A      0.420249    71A      0.433035  
      72A      0.444293    73A      0.474644    74A      0.505301  
      75A      0.523221    76A      0.543883    77A      0.580519  
      78A      0.598221    79A      0.630585    80A      0.636436  
      81A      0.643081    82A      0.661337    83A      0.669788  
      84A      0.674974    85A      0.691471    86A      0.699550  
      87A      0.708897    88A      0.720210    89A      0.727980  
      90A      0.739441    91A      0.745883    92A      0.749332  
      93A      0.754097    94A      0.773057    95A      0.788426  
      96A      0.806110    97A      0.817056    98A      0.828708  
      99A      0.836381   100A      0.840437   101A      0.854212  
     102A      0.859563   103A      0.871828   104A      0.879069  
     105A      0.884077   106A      0.887617   107A      0.889390  
     108A      0.898179   109A      0.901153   110A      0.913118  
     111A      0.918477   112A      0.929539   113A      0.932986  
     114A      0.933842   115A      0.942840   116A      0.948892  
     117A      0.957312   118A      0.965261   119A      0.986340  
     120A      0.997075   121A      1.015991   122A      1.024207  
     123A      1.041345   124A      1.065654   125A      1.115829  
     126A      1.129711   127A      1.137417   128A      1.155555  
     129A      1.177796   130A      1.189076   131A      1.210871  
     132A      1.239060   133A      1.262265   134A      1.268623  
     135A      1.279555   136A      1.286118   137A      1.301716  
     138A      1.313450   139A      1.322767   140A      1.348304  
     141A      1.356557   142A      1.367123   143A      1.382908  
     144A      1.397109   145A      1.436630   146A      1.462003  
     147A      1.482100   148A      1.493512   149A      1.500375  
     150A      1.518615   151A      1.553746   152A      1.566840  
     153A      1.579149   154A      1.591944   155A      1.608002  
     156A      1.628140   157A      1.650984   158A      1.688086  
     159A      1.706195   160A      1.729621   161A      1.746235  
     162A      1.764569   163A      1.774539   164A      1.793210  
     165A      1.809739   166A      1.813473   167A      1.831942  
     168A      1.845957   169A      1.854378   170A      1.868545  
     171A      1.878643   172A      1.885530   173A      1.893135  
     174A      1.904564   175A      1.911637   176A      1.917378  
     177A      1.928005   178A      1.937203   179A      1.938995  
     180A      1.947186   181A      1.969569   182A      1.973726  
     183A      1.988015   184A      1.997524   185A      2.019742  
     186A      2.030135   187A      2.030298   188A      2.035531  
     189A      2.051379   190A      2.063169   191A      2.064289  
     192A      2.077298   193A      2.091373   194A      2.101382  
     195A      2.113540   196A      2.119931   197A      2.133326  
     198A      2.141560   199A      2.158869   200A      2.187620  
     201A      2.196851   202A      2.218348   203A      2.243896  
     204A      2.259052   205A      2.268366   206A      2.276923  
     207A      2.297780   208A      2.314957   209A      2.342506  
     210A      2.353531   211A      2.379619   212A      2.399060  
     213A      2.407177   214A      2.427305   215A      2.434262  
     216A      2.447751   217A      2.459239   218A      2.470732  
     219A      2.501347   220A      2.524062   221A      2.527804  
     222A      2.537577   223A      2.551032   224A      2.621533  
     225A      2.625337   226A      2.662337   227A      2.679111  
     228A      2.728890   229A      2.732559   230A      2.759619  
     231A      2.771313   232A      2.776331   233A      2.804242  
     234A      2.823773   235A      2.831103   236A      2.866085  
     237A      2.916537   238A      2.943571   239A      2.956062  
     240A      2.986259   241A      3.019524   242A      3.028465  
     243A      3.063312   244A      3.127036   245A      3.197640  
     246A      3.255931   247A      3.266193   248A      3.321303  
     249A      3.563052   250A      3.693458   251A      3.884630  
     252A      4.180701  

    Final Occupation by Irrep:
              A 
    DOCC [    47 ]

  @DF-RHF Final Energy:  -537.46161996982642

   => Energetics <=

    Nuclear Repulsion Energy =            745.0162941860509136
    One-Electron Energy =               -2207.3916919212670109
    Two-Electron Energy =                 924.9137777653897956
    Total Energy =                       -537.4616199698264154

Computation Completed


Properties will be evaluated at   0.000000,   0.000000,   0.000000 [a0]

Properties computed using the SCF density matrix

  Nuclear Dipole Moment: [e a0]
     X:    12.4013      Y:     2.3807      Z:    -2.8278

  Electronic Dipole Moment: [e a0]
     X:   -12.3678      Y:    -1.8638      Z:     2.7192

  Dipole Moment: [e a0]
     X:     0.0335      Y:     0.5169      Z:    -0.1086     Total:     0.5292

  Dipole Moment: [D]
     X:     0.0851      Y:     1.3138      Z:    -0.2761     Total:     1.3452


*** tstop() called on skystd25.palmetto.clemson.edu at Sat Dec 11 17:34:26 2021
Module time:
	user time   =      17.04 seconds =       0.28 minutes
	system time =       0.46 seconds =       0.01 minutes
	total time  =         18 seconds =       0.30 minutes
Total time:
	user time   =     108.96 seconds =       1.82 minutes
	system time =       3.26 seconds =       0.05 minutes
	total time  =        113 seconds =       1.88 minutes

*** tstart() called on skystd25.palmetto.clemson.edu
*** at Sat Dec 11 17:34:26 2021


  //>>>>>>>>>>>>>>>>>>>>>>>>>>>>>>>>>>>//
  //               DFMP2               //
  //<<<<<<<<<<<<<<<<<<<<<<<<<<<<<<<<<<<//

   => Loading Basis Set <=

    Name: (CC-PVDZ AUX)
    Role: RIFIT
    Keyword: DF_BASIS_MP2
    atoms 1-12         entry C          line   159 file /home/maxbuskirk/.conda/envs/psifour/share/psi4/basis/cc-pvdz-ri.gbs 
    atoms 13-14, 16-27 entry H          line    19 file /home/maxbuskirk/.conda/envs/psifour/share/psi4/basis/cc-pvdz-ri.gbs 
    atoms 15           entry O          line   235 file /home/maxbuskirk/.conda/envs/psifour/share/psi4/basis/cc-pvdz-ri.gbs 

	 --------------------------------------------------------
	                          DF-MP2                         
	      2nd-Order Density-Fitted Moller-Plesset Theory     
	              RMP2 Wavefunction,   1 Threads             
	                                                         
	        Rob Parrish, Justin Turney, Andy Simmonett,      
	           Ed Hohenstein, and C. David Sherrill          
	 --------------------------------------------------------

   => Auxiliary Basis Set <=

  Basis Set: (CC-PVDZ AUX)
    Blend: CC-PVDZ-RI
    Number of shells: 318
    Number of basis functions: 924
    Number of Cartesian functions: 1068
    Spherical Harmonics?: true
    Max angular momentum: 3

	 --------------------------------------------------------
	                 NBF =   252, NAUX =   924
	 --------------------------------------------------------
	   CLASS    FOCC     OCC    AOCC    AVIR     VIR    FVIR
	   PAIRS       0      47      47     205     205       0
	 --------------------------------------------------------


         ------------------------------------------------------------
                                     CPHF                           
                                  Rob Parrish                       
         ------------------------------------------------------------

  ==> Geometry <==

    Molecular point group: c1
    Full point group: C1

    Geometry (in Angstrom), charge = 0, multiplicity = 1:

       Center              X                  Y                   Z               Mass       
    ------------   -----------------  -----------------  -----------------  -----------------
         C            3.338212358926     1.400136373082     0.522770684761    12.000000000000
         C            1.826274026493     1.677881868697     0.615002252031    12.000000000000
         C            1.222037047840     0.450543635016    -0.049855744838    12.000000000000
         C            2.148566092064    -0.169856286816    -0.835995768709    12.000000000000
         C            3.483061892524     0.544656918003    -0.748688557571    12.000000000000
         C           -0.197411245903     0.088577217926     0.111649814974    12.000000000000
         C           -0.610298578302    -1.256676668620     0.249018946781    12.000000000000
         C           -1.960451036441    -1.596520423846     0.408999107216    12.000000000000
         C           -2.933596613144    -0.590126786117     0.446217013267    12.000000000000
         C           -2.541600012846     0.757650567990     0.334269524924    12.000000000000
         C           -1.189936777034     1.090826905786     0.176489190927    12.000000000000
         C            1.951313196323    -1.315449254460    -1.783053760324    12.000000000000
         H           -0.902050756335     2.142681047892     0.088124161306     1.007825032230
         H           -3.297813528577     1.550172336265     0.372670391670     1.007825032230
         O           -4.238091070088    -0.971814471382     0.605272399990    15.994914619570
         H           -2.265817605858    -2.640630345976     0.520471869363     1.007825032230
         H            0.144036804093    -2.047733352636     0.261880580728     1.007825032230
         H            3.639935796336     0.795749083697     1.394691992999     1.007825032230
         H            3.952845495832     2.314067316343     0.510934118799     1.007825032230
         H            4.340007766493    -0.150532491050    -0.709832358800     1.007825032230
         H            3.625464305411     1.176413154173    -1.648733571083     1.007825032230
         H            0.887062141504    -1.546419446815    -1.936916831785     1.007825032230
         H            2.401406723869    -1.073629779664    -2.761887360977     1.007825032230
         H            2.455800882706    -2.228652418237    -1.419746129807     1.007825032230
         H            1.472040295568     1.821555314718     1.649407431560     1.007825032230
         H            1.557111403882     2.590805749336     0.047966388867     1.007825032230
         H           -4.759852181222    -0.159395877470     0.611444396315     1.007825032230

  Nuclear repulsion =  745.016294186050914
  Reference energy  = -537.461619969826415

  ==> Basis Set <==

  Basis Set: CC-PVDZ
    Blend: CC-PVDZ
    Number of shells: 120
    Number of basis functions: 252
    Number of Cartesian functions: 265
    Spherical Harmonics?: true
    Max angular momentum: 2

  ==> CGRSolver (by Rob Parrish) <==

   Number of roots    =         1
[...]
	   57 B(6,11,10)      =    121.263286    -0.000000    -0.000163   121.263124
	   58 B(6,11,13)      =    119.652806     0.000000     0.000040   119.652846
	   59 B(7,6,11)       =    117.631316     0.000000    -0.000315   117.631002
	   60 B(7,8,9)        =    120.133973     0.000000     0.002157   120.136130
	   61 B(7,8,16)       =    121.211685    -0.000002    -0.003541   121.208144
	   62 B(8,7,17)       =    119.246852     0.000000     0.002827   119.249678
	   63 B(8,9,10)       =    119.307460     0.000000     0.000583   119.308043
	   64 B(8,9,15)       =    117.497197     0.000002     0.005943   117.503140
	   65 B(9,8,16)       =    118.647464     0.000001     0.001397   118.648861
	   66 B(9,10,11)      =    120.232182     0.000000    -0.001227   120.230955
	   67 B(9,10,14)      =    119.898892     0.000001     0.009880   119.908772
	   68 B(9,15,27)      =    107.276530     0.000001     0.005265   107.281795
	   69 B(10,9,15)      =    123.192119    -0.000002    -0.006476   123.185643
	   70 B(10,11,13)     =    119.078103     0.000000     0.000024   119.078127
	   71 B(11,10,14)     =    119.868773    -0.000001    -0.008650   119.860123
	   72 B(18,1,19)      =    108.086076    -0.000000     0.000207   108.086283
	   73 B(20,5,21)      =    106.705931     0.000000    -0.000408   106.705523
	   74 B(22,12,23)     =    108.444685    -0.000000    -0.001950   108.442735
	   75 B(22,12,24)     =    108.301779    -0.000001    -0.003364   108.298414
	   76 B(23,12,24)     =    106.644391     0.000000     0.000481   106.644872
	   77 B(25,2,26)      =    107.134165     0.000000     0.001789   107.135954
	   78 D(1,2,3,4)      =    -19.946059    -0.000000    -0.068800   -20.014859
	   79 D(1,2,3,6)      =    163.508000    -0.000000    -0.044503   163.463497
	   80 D(1,5,4,3)      =     17.106066    -0.000000    -0.063965    17.042101
	   81 D(1,5,4,12)     =   -167.982469    -0.000000    -0.015984  -167.998452
	   82 D(2,1,5,4)      =    -28.480494     0.000000     0.018867   -28.461627
	   83 D(2,1,5,20)     =   -150.676300    -0.000000     0.008162  -150.668138
	   84 D(2,1,5,21)     =     89.015865    -0.000000     0.009068    89.024933
	   85 D(2,3,4,5)      =      1.830841     0.000000     0.084481     1.915322
	   86 D(2,3,4,12)     =   -172.583223     0.000000     0.032352  -172.550871
	   87 D(2,3,6,7)      =   -142.009044    -0.000000    -0.099069  -142.108112
	   88 D(2,3,6,11)     =     35.849867    -0.000000    -0.087279    35.762589
	   89 D(3,2,1,5)      =     29.358941     0.000000     0.026582    29.385523
	   90 D(3,2,1,18)     =    -86.470926     0.000000     0.026920   -86.444006
	   91 D(3,2,1,19)     =    153.242497     0.000000     0.026077   153.268574
	   92 D(3,4,5,20)     =    139.549119    -0.000000    -0.054830   139.494289
	   93 D(3,4,5,21)     =   -101.715255    -0.000000    -0.057874  -101.773128
	   94 D(3,4,12,22)    =     10.160076     0.000000     0.159726    10.319801
	   95 D(3,4,12,23)    =    130.766320     0.000000     0.158769   130.925089
	   96 D(3,4,12,24)    =   -111.342699     0.000000     0.159841  -111.182858
	   97 D(3,6,7,8)      =    179.597199     0.000000     0.013959   179.611158
	   98 D(3,6,7,17)     =      1.553113     0.000000     0.034843     1.587956
	   99 D(3,6,11,10)    =   -179.729803    -0.000000    -0.018911  -179.748714
	  100 D(3,6,11,13)    =      1.154807    -0.000000    -0.011415     1.143392
	  101 D(4,3,2,25)     =   -142.158685    -0.000000    -0.064773  -142.223458
	  102 D(4,3,2,26)     =     98.191768    -0.000000    -0.067628    98.124140
	  103 D(4,3,6,7)      =     42.065478    -0.000000    -0.069742    41.995737
	  104 D(4,3,6,11)     =   -140.075611    -0.000000    -0.057952  -140.133562
	  105 D(4,5,1,18)     =     87.238857     0.000000     0.020135    87.258992
	  106 D(4,5,1,19)     =   -152.328276     0.000000     0.020802  -152.307474
	  107 D(5,1,2,25)     =    151.259409    -0.000000     0.020818   151.280227
	  108 D(5,1,2,26)     =    -88.250013    -0.000000     0.024067   -88.225946
	  109 D(5,4,3,6)      =    178.147999     0.000000     0.058035   178.206034
	  110 D(5,4,12,22)    =   -163.748063     0.000000     0.102490  -163.645573
	  111 D(5,4,12,23)    =    -43.141819     0.000000     0.101534   -43.040285
	  112 D(5,4,12,24)    =     74.749162     0.000000     0.102605    74.851767
	  113 D(6,3,2,25)     =     41.295373    -0.000000    -0.040475    41.254899
	  114 D(6,3,2,26)     =    -78.354173    -0.000000    -0.043330   -78.397503
	  115 D(6,3,4,12)     =      3.733935     0.000000     0.005907     3.739842
	  116 D(6,7,8,9)      =     -0.511756     0.000000     0.003639    -0.508117
	  117 D(6,7,8,16)     =   -179.544708     0.000000     0.002691  -179.542018
	  118 D(6,11,10,9)    =      0.724709     0.000000     0.006504     0.731213
	  119 D(6,11,10,14)   =   -179.417317     0.000000     0.007566  -179.409751
	  120 D(7,6,11,10)    =     -1.783092    -0.000000    -0.007563    -1.790655
	  121 D(7,6,11,13)    =    179.101517     0.000000    -0.000067   179.101450
	  122 D(7,8,9,10)     =     -0.602482    -0.000000    -0.004826    -0.607308
	  123 D(7,8,9,15)     =   -179.970214    -0.000000    -0.009720  -179.979934
	  124 D(8,7,6,11)     =      1.679319     0.000000     0.002507     1.681827
	  125 D(8,9,10,11)    =      0.498268    -0.000000    -0.000162     0.498106
	  126 D(8,9,10,14)    =   -179.359663    -0.000000    -0.001198  -179.360861
	  127 D(8,9,15,27)    =    179.430692     0.000000     0.014742   179.445433
	  128 D(9,8,7,17)     =    177.533702    -0.000000    -0.017329   177.516372
	  129 D(9,10,11,13)   =    179.845078    -0.000000    -0.000949   179.844129
	  130 D(10,9,8,16)    =    178.455077    -0.000000    -0.003949   178.451127
	  131 D(10,9,15,27)   =      0.089530     0.000000     0.009589     0.099119
	  132 D(11,6,7,17)    =   -176.364767     0.000000     0.023392  -176.341375
	  133 D(11,10,9,15)   =    179.828075     0.000000     0.005112   179.833187
	  134 D(12,4,5,20)    =    -45.539416     0.000000    -0.006849   -45.546265
	  135 D(12,4,5,21)    =     73.196210     0.000000    -0.009892    73.186318
	  136 D(13,11,10,14)  =     -0.296948    -0.000000     0.000113    -0.296835
	  137 D(14,10,9,15)   =     -0.029856     0.000000     0.004076    -0.025781
	  138 D(15,9,8,16)    =     -0.912656    -0.000000    -0.008844    -0.921500
	  139 D(16,8,7,17)    =     -1.499251    -0.000000    -0.018278    -1.517528
	  140 D(18,1,2,25)    =     35.429542    -0.000000     0.021156    35.450698
	  141 D(18,1,2,26)    =    155.920120     0.000000     0.024405   155.944525
	  142 D(18,1,5,20)    =    -34.956949    -0.000000     0.009430   -34.947519
	  143 D(18,1,5,21)    =   -155.264784    -0.000000     0.010336  -155.254448
	  144 D(19,1,2,25)    =    -84.857035    -0.000000     0.020313   -84.836722
	  145 D(19,1,2,26)    =     35.633543    -0.000000     0.023563    35.657106
	  146 D(19,1,5,20)    =     85.475918    -0.000000     0.010097    85.486015
	  147 D(19,1,5,21)    =    -34.831917    -0.000000     0.011002   -34.820914
	  148 R(7,12)         =      3.267899     0.000014    -0.000339     3.267560
	 ---------------------------------------------------------------------------
	Successfully symmetrized geometry.

  ==> Convergence Check <==

  Measures of convergence in internal coordinates in au.
  Criteria marked as inactive (o), active & met (*), and active & unmet ( ).
  ---------------------------------------------------------------------------------------------
   Step     Total Energy     Delta E     MAX Force     RMS Force      MAX Disp      RMS Disp   
  ---------------------------------------------------------------------------------------------
    Convergence Criteria    1.00e-06 *    3.00e-04 *             o    1.20e-03 *             o
  ---------------------------------------------------------------------------------------------
      5    -539.29235233   -7.61e-07 *    6.11e-05 *    1.14e-05 o    2.79e-03      6.21e-04 o  ~
  ---------------------------------------------------------------------------------------------


  **** Optimization is complete! (in 5 steps) ****

  ==> Optimization Summary <==

  Measures of convergence in internal coordinates in au.
  --------------------------------------------------------------------------------------------------------------- ~
   Step         Total Energy             Delta E       MAX Force       RMS Force        MAX Disp        RMS Disp  ~
  --------------------------------------------------------------------------------------------------------------- ~
      1    -539.290974251571   -539.290974251571      0.02056107      0.00251214      0.05481734      0.00833760  ~
      2    -539.292272214701     -0.001297963130      0.00371658      0.00054292      0.01676970      0.00241634  ~
      3    -539.292346305014     -0.000074090313      0.00092761      0.00013284      0.00446507      0.00110968  ~
      4    -539.292351564524     -0.000005259510      0.00029536      0.00003617      0.00418700      0.00096794  ~
      5    -539.292352325255     -0.000000760731      0.00006109      0.00001140      0.00278975      0.00062142  ~
  --------------------------------------------------------------------------------------------------------------- ~

	Writing optimization data to binary file.
	Final energy is   -539.2923523252546
	Final (previous) structure:
	Cartesian Geometry (in Angstrom)
	    C     3.3422436677   1.3918845027   0.5123385523
	    C     1.8307805891   1.6700887313   0.6094733348
	    C     1.2237994506   0.4438746886  -0.0551230983
	    C     2.1479735079  -0.1764680494  -0.8443488702
	    C     3.4828735839   0.5372059230  -0.7602637589
	    C    -0.1950933710   0.0857054347   0.1107225577
	    C    -0.6155806375  -1.2592830203   0.2327833358
	    C    -1.9656305089  -1.5891957305   0.3983980635
	    C    -2.9374631001  -0.5757279350   0.4575799922
	    C    -2.5368132884   0.7682094524   0.3616143787
	    C    -1.1826275014   1.0910065506   0.1980714557
	    C     1.9474549138  -1.3197275086  -1.7936312504
	    H    -0.8920567179   2.1433492513   0.1229091246
	    H    -3.2856965715   1.5670498661   0.4171805722
	    O    -4.2410840245  -0.9590843531   0.6212442380
	    H    -2.2863673246  -2.6296105107   0.4998119955
	    H     0.1328746902  -2.0568041001   0.2293845148
	    H     3.6468349244   0.7871117257   1.3829995097
	    H     3.9569532842   2.3057183918   0.4988771155
	    H     4.3390552815  -0.1590561188  -0.7238497578
	    H     3.6240136091   1.1691600870  -1.6603806790
	    H     0.8824095386  -1.5441505994  -1.9515882576
	    H     2.4024225212  -1.0792724864  -2.7705292543
	    H     2.4449805376  -2.2366376107  -1.4299497172
	    H     1.4798841784   1.8125237968   1.6451972909
	    H     1.5599867523   2.5838064629   0.0445547777
	    H    -4.7760448104  -0.1532327714   0.6510796745
	Saving final (previous) structure.
	Cleaning optimization helper files.
			--------------------------
			 OPTKING Finished Execution 
			--------------------------

    Final optimized geometry and variables:
    Molecular point group: c1
    Full point group: C1

    Geometry (in Angstrom), charge = 0, multiplicity = 1:

    C            3.342243680829     1.391884508205     0.512338554354
    C            1.830780596317     1.670088737839     0.609473337176
    C            1.223799455413     0.443874690320    -0.055123098516
    C            2.147973516366    -0.176468050072    -0.844348873531
    C            3.482873597587     0.537205925076    -0.760263761854
    C           -0.195093371797     0.085705435058     0.110722558175
    C           -0.615580639962    -1.259283025224     0.232783336667
    C           -1.965630516608    -1.589195736702     0.398398065032
    C           -2.937463111689    -0.575727937237     0.457579993983
    C           -2.536813298396     0.768209455430     0.361614380160
    C           -1.182627506051     1.091006554881     0.198071456492
    C            1.947454921425    -1.319727513777    -1.793631257440
    H           -0.892056721390     2.143349259760     0.122909125058
    H           -3.285696584372     1.567049872232     0.417180573826
    O           -4.241084041207    -0.959084356889     0.621244240460
    H           -2.286367333591    -2.629610521045     0.499811997426
    H            0.132874690720    -2.056804108145     0.229384515672
    H            3.646834938702     0.787111728761     1.382999515092
    H            3.956953299752     2.305718400867     0.498877117497
    H            4.339055298516    -0.159056119442    -0.723849760635
    H            3.624013623323     1.169160091619    -1.660380685506
    H            0.882409542068    -1.544150605510    -1.951588265263
    H            2.402422530684    -1.079272490660    -2.770529265190
    H            2.444980547227    -2.236637619460    -1.429949722858
    H            1.479884184257     1.812523803964     1.645197297328
    H            1.559986758388     2.583806473048     0.044554777904
    H           -4.776044829162    -0.153232772011     0.651079677108

	Removing binary optimization data file.
	Cleaning optimization helper files.


Properties will be evaluated at   0.000000,   0.000000,   0.000000 [a0]
OEProp: No title given, name of density matrix used for the following properties is 'DF-MP2 relaxed density'
  Mulliken Charges: (a.u.)
   Center  Symbol    Alpha    Beta     Spin     Total
       1     C     3.02684  3.02684  0.00000 -0.05367
       2     C     3.00246  3.00246  0.00000 -0.00492
       3     C     3.02932  3.02932  0.00000 -0.05864
       4     C     3.10726  3.10726  0.00000 -0.21451
       5     C     3.00321  3.00321  0.00000 -0.00642
       6     C     3.04409  3.04409  0.00000 -0.08819
       7     C     3.00058  3.00058  0.00000 -0.00117
       8     C     2.99646  2.99646  0.00000  0.00708
       9     C     2.96612  2.96612  0.00000  0.06775
      10     C     3.02064  3.02064  0.00000 -0.04128
      11     C     3.00217  3.00217  0.00000 -0.00433
      12     C     3.00303  3.00303  0.00000 -0.00606
      13     H     0.49626  0.49626  0.00000  0.00747
      14     H     0.49287  0.49287  0.00000  0.01426
      15     O     4.10744  4.10744  0.00000 -0.21487
      16     H     0.48730  0.48730  0.00000  0.02540
      17     H     0.49421  0.49421  0.00000  0.01159
      18     H     0.47885  0.47885  0.00000  0.04231
      19     H     0.48535  0.48535  0.00000  0.02929
      20     H     0.48211  0.48211  0.00000  0.03579
      21     H     0.47722  0.47722  0.00000  0.04557
      22     H     0.47221  0.47221  0.00000  0.05559
      23     H     0.47606  0.47606  0.00000  0.04789
      24     H     0.47268  0.47268  0.00000  0.05465
      25     H     0.47932  0.47932  0.00000  0.04135
      26     H     0.47570  0.47570  0.00000  0.04860
      27     H     0.42026  0.42026  0.00000  0.15948

   Total alpha = 47.00000, Total beta = 47.00000, Total charge =  0.00000

    Molecular point group: c1
    Full point group: C1

    Geometry (in Angstrom), charge = 0, multiplicity = 1:

       Center              X                  Y                   Z               Mass       
    ------------   -----------------  -----------------  -----------------  -----------------
         C            3.342243680829     1.391884508205     0.512338554354    12.000000000000
         C            1.830780596317     1.670088737839     0.609473337176    12.000000000000
         C            1.223799455413     0.443874690320    -0.055123098516    12.000000000000
         C            2.147973516366    -0.176468050072    -0.844348873531    12.000000000000
         C            3.482873597587     0.537205925076    -0.760263761854    12.000000000000
         C           -0.195093371797     0.085705435058     0.110722558175    12.000000000000
         C           -0.615580639962    -1.259283025224     0.232783336667    12.000000000000
         C           -1.965630516608    -1.589195736702     0.398398065032    12.000000000000
         C           -2.937463111689    -0.575727937237     0.457579993983    12.000000000000
         C           -2.536813298396     0.768209455430     0.361614380160    12.000000000000
         C           -1.182627506051     1.091006554881     0.198071456492    12.000000000000
         C            1.947454921425    -1.319727513777    -1.793631257440    12.000000000000
         H           -0.892056721390     2.143349259760     0.122909125058     1.007825032230
         H           -3.285696584372     1.567049872232     0.417180573826     1.007825032230
         O           -4.241084041207    -0.959084356889     0.621244240460    15.994914619570
         H           -2.286367333591    -2.629610521045     0.499811997426     1.007825032230
         H            0.132874690720    -2.056804108145     0.229384515672     1.007825032230
         H            3.646834938702     0.787111728761     1.382999515092     1.007825032230
         H            3.956953299752     2.305718400867     0.498877117497     1.007825032230
         H            4.339055298516    -0.159056119442    -0.723849760635     1.007825032230
         H            3.624013623323     1.169160091619    -1.660380685506     1.007825032230
         H            0.882409542068    -1.544150605510    -1.951588265263     1.007825032230
         H            2.402422530684    -1.079272490660    -2.770529265190     1.007825032230
         H            2.444980547227    -2.236637619460    -1.429949722858     1.007825032230
         H            1.479884184257     1.812523803964     1.645197297328     1.007825032230
         H            1.559986758388     2.583806473048     0.044554777904     1.007825032230
         H           -4.776044829162    -0.153232772011     0.651079677108     1.007825032230



  Variable Map:
  ----------------------------------------------------------------------------
  "CURRENT CORRELATION ENERGY"           =>      -1.830724588715
  "CURRENT DIPOLE X"                     =>       0.042638901538
  "CURRENT DIPOLE Y"                     =>       1.309919450380
  "CURRENT DIPOLE Z"                     =>      -0.240116015503
  "CURRENT ENERGY"                       =>    -539.292352325255
  "CURRENT REFERENCE ENERGY"             =>    -537.461627736540
  "CUSTOM SCS-MP2 CORRELATION ENERGY"    =>      -1.781128333083
  "CUSTOM SCS-MP2 TOTAL ENERGY"          =>    -539.242756069623
  "HF TOTAL ENERGY"                      =>    -537.461627736540
  "MP2 CORRELATION ENERGY"               =>      -1.830724588715
  "MP2 DOUBLES ENERGY"                   =>      -1.830724588715
  "MP2 OPPOSITE-SPIN CORRELATION ENERGY" =>      -1.351023234821
  "MP2 SAME-SPIN CORRELATION ENERGY"     =>      -0.479701353894
  "MP2 SINGLES ENERGY"                   =>      -0.000000000000
  "MP2 TOTAL ENERGY"                     =>    -539.292352325255
  "NUCLEAR REPULSION ENERGY"             =>     744.864000660456
  "ONE-ELECTRON ENERGY"                  =>   -2207.100641481199
  "OPTIMIZATION ITERATIONS"              =>       5.000000000000
  "PCM POLARIZATION ENERGY"              =>       0.000000000000
  "PE ENERGY"                            =>       0.000000000000
  "SCF DIPOLE X"                         =>       0.042638901538
  "SCF DIPOLE Y"                         =>       1.309919450380
  "SCF DIPOLE Z"                         =>      -0.240116015503
  "SCF ITERATION ENERGY"                 =>    -537.461627736540
  "SCF ITERATIONS"                       =>      13.000000000000
  "SCF TOTAL ENERGY"                     =>    -537.461627736540
  "SCS-MP2 CORRELATION ENERGY"           =>      -1.781128333083
  "SCS-MP2 TOTAL ENERGY"                 =>    -539.242756069623
  "TWO-ELECTRON ENERGY"                  =>     924.775013084203



    Psi4 stopped on: Saturday, 11 December 2021 05:40PM
    Psi4 wall time for execution: 0:07:46.97

*** Psi4 exiting successfully. Buy a developer a beer!
