
    -----------------------------------------------------------------------
          Psi4: An Open-Source Ab Initio Electronic Structure Package
                               Psi4 1.4 release

                         Git: Rev {HEAD} 9485035 


    D. G. A. Smith, L. A. Burns, A. C. Simmonett, R. M. Parrish,
    M. C. Schieber, R. Galvelis, P. Kraus, H. Kruse, R. Di Remigio,
    A. Alenaizan, A. M. James, S. Lehtola, J. P. Misiewicz, M. Scheurer,
    R. A. Shaw, J. B. Schriber, Y. Xie, Z. L. Glick, D. A. Sirianni,
    J. S. O'Brien, J. M. Waldrop, A. Kumar, E. G. Hohenstein,
    B. P. Pritchard, B. R. Brooks, H. F. Schaefer III, A. Yu. Sokolov,
    K. Patkowski, A. E. DePrince III, U. Bozkaya, R. A. King,
    F. A. Evangelista, J. M. Turney, T. D. Crawford, C. D. Sherrill,
    J. Chem. Phys. 152(18) 184108 (2020). https://doi.org/10.1063/5.0006002

                            Additional Code Authors
    E. T. Seidl, C. L. Janssen, E. F. Valeev, M. L. Leininger,
    J. F. Gonthier, R. M. Richard, H. R. McAlexander, M. Saitow, X. Wang,
    P. Verma, and M. H. Lechner

             Previous Authors, Complete List of Code Contributors,
                       and Citations for Specific Modules
    https://github.com/psi4/psi4/blob/master/codemeta.json
    https://github.com/psi4/psi4/graphs/contributors
    http://psicode.org/psi4manual/master/introduction.html#citing-psifour

    -----------------------------------------------------------------------


    Psi4 started on: Saturday, 11 December 2021 05:48PM

    Process ID: 3680064
    Host:       skystd36.palmetto.clemson.edu
    PSIDATADIR: /home/maxbuskirk/.conda/envs/psifour/share/psi4
    Memory:     500.0 MiB
    Threads:    1
    
  ==> Input File <==

--------------------------------------------------------------------------
molecule mol {
0 1
 C     1.511290    -0.280966    -0.092593
 C    -0.000000     0.000000     0.000000
 C    -0.605968    -1.226439    -0.664954
 C     0.319060    -1.848819    -1.451355
 C     1.653820    -1.134973    -1.365322
 C    -2.027094    -1.583009    -0.507457
 C    -2.438238    -2.928025    -0.366876
 C    -3.794208    -3.253627    -0.211477
 C    -4.766046    -2.240264    -0.182231
 C    -4.369571    -0.897483    -0.299270
 C    -3.014139    -0.572542    -0.452922
 C     0.120138    -2.993149    -2.399423
 H    -2.715369     0.476287    -0.545440
 H    -5.118805    -0.100426    -0.268581
 O    -6.099328    -2.559996    -0.025611
 H    -4.091097    -4.301038    -0.099616
 H    -1.681648    -3.717845    -0.347819
 H     1.812305    -0.886836     0.778541
 H     2.127353     0.631886    -0.103726
 H     2.509857    -1.831293    -1.328975
 H     1.794964    -0.502471    -2.264944
 H    -0.944311    -3.224044    -2.552012
 H     0.568816    -2.749556    -3.378502
 H     0.625600    -3.906462    -2.037287
 H    -0.354002     0.144380     1.034324
 H    -0.267853     0.913064    -0.567140
 C    -6.863894    -1.387208    -0.028188
 H    -7.916027    -1.639518     0.095405
 H    -6.545927    -0.744791     0.791640
 H    -6.724450    -0.865053    -0.973614
}

set scf_type df
set basis cc-pVTZ
set reference rhf

mol.update_geometry()
mol.symmetrize(1e-3)

e, wfn = optimize('mp2', return_wfn=True)
oeprop(wfn, "MULLIKEN_CHARGES")
mol.print_out()
print_variables()
--------------------------------------------------------------------------

Scratch directory: /local_scratch/pbs.4129855.pbs02/
gradient() will perform analytic gradient computation.

*** tstart() called on skystd36.palmetto.clemson.edu
*** at Sat Dec 11 17:48:05 2021

   => Loading Basis Set <=

    Name: CC-PVTZ
    Role: ORBITAL
    Keyword: BASIS
    atoms 1-12, 27            entry C          line   186 file /home/maxbuskirk/.conda/envs/psifour/share/psi4/basis/cc-pvtz.gbs 
    atoms 13-14, 16-26, 28-30 entry H          line    23 file /home/maxbuskirk/.conda/envs/psifour/share/psi4/basis/cc-pvtz.gbs 
    atoms 15                  entry O          line   262 file /home/maxbuskirk/.conda/envs/psifour/share/psi4/basis/cc-pvtz.gbs 


         ---------------------------------------------------------
                                   SCF
               by Justin Turney, Rob Parrish, Andy Simmonett
                          and Daniel G. A. Smith
                              RHF Reference
                        1 Threads,    500 MiB Core
         ---------------------------------------------------------

  ==> Geometry <==

    Molecular point group: c1
    Full point group: C1

    Geometry (in Angstrom), charge = 0, multiplicity = 1:

       Center              X                  Y                   Z               Mass       
    ------------   -----------------  -----------------  -----------------  -----------------
         C            3.722577606396     1.354070256074     0.484348443354    12.000000000000
         C            2.211287606396     1.635036256074     0.576941443354    12.000000000000
         C            1.605319606396     0.408597256074    -0.088012556646    12.000000000000
         C            2.530347606396    -0.213782743926    -0.874413556646    12.000000000000
         C            3.865107606396     0.500063256074    -0.788380556646    12.000000000000
         C            0.184193606396     0.052027256074     0.069484443354    12.000000000000
         C           -0.226950393604    -1.292988743926     0.210065443354    12.000000000000
         C           -1.582920393604    -1.618590743926     0.365464443354    12.000000000000
         C           -2.554758393604    -0.605227743926     0.394710443354    12.000000000000
         C           -2.158283393604     0.737553256074     0.277671443354    12.000000000000
         C           -0.802851393604     1.062494256074     0.124019443354    12.000000000000
         C            2.331425606396    -1.358112743926    -1.822481556646    12.000000000000
         H           -0.504081393604     2.111323256074     0.031501443354     1.007825032230
         H           -2.907517393604     1.534610256074     0.308360443354     1.007825032230
         O           -3.888040393604    -0.924959743926     0.551330443354    15.994914619570
         H           -1.879809393604    -2.666001743926     0.477325443354     1.007825032230
         H            0.529639606396    -2.082808743926     0.229122443354     1.007825032230
         H            4.023592606396     0.748200256074     1.355482443354     1.007825032230
         H            4.338640606396     2.266922256074     0.473215443354     1.007825032230
         H            4.721144606396    -0.196256743926    -0.752033556646     1.007825032230
         H            4.006251606396     1.132565256074    -1.688002556646     1.007825032230
         H            1.266976606396    -1.589007743926    -1.975070556646     1.007825032230
         H            2.780103606396    -1.114519743926    -2.801560556646     1.007825032230
         H            2.836887606396    -2.271425743926    -1.460345556646     1.007825032230
         H            1.857285606396     1.779416256074     1.611265443354     1.007825032230
         H            1.943434606396     2.548100256074     0.009801443354     1.007825032230
         C           -4.652606393604     0.247828256074     0.548753443354    12.000000000000
         H           -5.704739393604    -0.004481743926     0.672346443354     1.007825032230
         H           -4.334639393604     0.890245256074     1.368581443354     1.007825032230
         H           -4.513162393604     0.769983256074    -0.396672556646     1.007825032230

  Running in c1 symmetry.

  Rotational constants: A =      0.06178  B =      0.01103  C =      0.00986 [cm^-1]
  Rotational constants: A =   1852.21399  B =    330.61175  C =    295.70262 [MHz]
  Nuclear repulsion =  846.802451655004802

  Charge       = 0
  Multiplicity = 1
  Electrons    = 102
  Nalpha       = 51
  Nbeta        = 51

  ==> Algorithm <==

  SCF Algorithm Type is DF.
  DIIS enabled.
  MOM disabled.
  Fractional occupation disabled.
  Guess Type is SAD.
  Energy threshold   = 1.00e-10
  Density threshold  = 1.00e-10
  Integral threshold = 1.00e-12

  ==> Primary Basis <==

  Basis Set: CC-PVTZ
    Blend: CC-PVTZ
    Number of shells: 236
    Number of basis functions: 644
    Number of Cartesian functions: 730
    Spherical Harmonics?: true
    Max angular momentum: 3

   => Loading Basis Set <=

    Name: (CC-PVTZ AUX)
    Role: JKFIT
    Keyword: DF_BASIS_SCF
    atoms 1-12, 27            entry C          line   125 file /home/maxbuskirk/.conda/envs/psifour/share/psi4/basis/cc-pvtz-jkfit.gbs 
    atoms 13-14, 16-26, 28-30 entry H          line    51 file /home/maxbuskirk/.conda/envs/psifour/share/psi4/basis/cc-pvtz-jkfit.gbs 
    atoms 15                  entry O          line   229 file /home/maxbuskirk/.conda/envs/psifour/share/psi4/basis/cc-pvtz-jkfit.gbs 

  ==> Integral Setup <==

  ==> DiskDFJK: Density-Fitted J/K Matrices <==

    J tasked:                  Yes
    K tasked:                  Yes
    wK tasked:                  No
    OpenMP threads:              1
    Integrals threads:           1
    Memory [MiB]:              375
    Algorithm:                Disk
    Integral Cache:           NONE
    Schwarz Cutoff:          1E-12
    Fitting Condition:       1E-10

   => Auxiliary Basis Set <=

  Basis Set: (CC-PVTZ AUX)
    Blend: CC-PVTZ-JKFIT
    Number of shells: 510
    Number of basis functions: 1586
    Number of Cartesian functions: 1904
    Spherical Harmonics?: true
    Max angular momentum: 4

  Minimum eigenvalue in the overlap matrix is 3.1515090196E-05.
  Reciprocal condition number of the overlap matrix is 3.5337319608E-06.
    Using symmetric orthogonalization.

  ==> Pre-Iterations <==

  SCF Guess: Superposition of Atomic Densities via on-the-fly atomic UHF (no occupation information).

   -------------------------
    Irrep   Nso     Nmo    
   -------------------------
     A        644     644 
   -------------------------
    Total     644     644
   -------------------------

  ==> Iterations <==

                           Total Energy        Delta E     RMS |[F,P]|

   @DF-RHF iter SAD:  -576.28620799818168   -5.76286e+02   0.00000e+00 
   @DF-RHF iter   1:  -576.25865824191044    2.75498e-02   1.14365e-03 DIIS
   @DF-RHF iter   2:  -576.55677264633653   -2.98114e-01   5.04889e-04 DIIS
   @DF-RHF iter   3:  -576.61194769254678   -5.51750e-02   1.30037e-04 DIIS
   @DF-RHF iter   4:  -576.61730610354903   -5.35841e-03   5.40740e-05 DIIS
   @DF-RHF iter   5:  -576.61803015684518   -7.24053e-04   1.20711e-05 DIIS
   @DF-RHF iter   6:  -576.61807748673652   -4.73299e-05   4.33763e-06 DIIS
   @DF-RHF iter   7:  -576.61808320810724   -5.72137e-06   1.14244e-06 DIIS
   @DF-RHF iter   8:  -576.61808385551274   -6.47405e-07   4.45986e-07 DIIS
   @DF-RHF iter   9:  -576.61808394701052   -9.14978e-08   1.64444e-07 DIIS
   @DF-RHF iter  10:  -576.61808396323079   -1.62203e-08   6.60626e-08 DIIS
   @DF-RHF iter  11:  -576.61808396632193   -3.09115e-09   2.87590e-08 DIIS
   @DF-RHF iter  12:  -576.61808396698575   -6.63817e-10   1.37172e-08 DIIS
   @DF-RHF iter  13:  -576.61808396721142   -2.25668e-10   5.40744e-09 DIIS
   @DF-RHF iter  14:  -576.61808396724314   -3.17186e-11   2.19470e-09 DIIS
   @DF-RHF iter  15:  -576.61808396724734   -4.20641e-12   9.02921e-10 DIIS
   @DF-RHF iter  16:  -576.61808396724700    3.41061e-13   4.37553e-10 DIIS
   @DF-RHF iter  17:  -576.61808396724564    1.36424e-12   1.97881e-10 DIIS
   @DF-RHF iter  18:  -576.61808396724905   -3.41061e-12   8.65479e-11 DIIS
  Energy and wave function converged.


  ==> Post-Iterations <==

    Orbital Energies [Eh]
    ---------------------

    Doubly Occupied:                                                      

       1A    -20.584629     2A    -11.298680     3A    -11.275433  
       4A    -11.239459     5A    -11.239232     6A    -11.235929  
       7A    -11.232369     8A    -11.230656     9A    -11.228260  
      10A    -11.223987    11A    -11.222324    12A    -11.222142  
      13A    -11.221089    14A    -11.219926    15A     -1.412185  
      16A     -1.153970    17A     -1.124020    18A     -1.026042  
      19A     -1.016224    20A     -1.002534    21A     -0.957090  
      22A     -0.927526    23A     -0.896323    24A     -0.833007  
      25A     -0.804848    26A     -0.778541    27A     -0.725011  
      28A     -0.690685    29A     -0.662526    30A     -0.660226  
      31A     -0.641806    32A     -0.636681    33A     -0.624756  
      34A     -0.587281    35A     -0.580548    36A     -0.573849  
      37A     -0.564304    38A     -0.554831    39A     -0.539931  
      40A     -0.524079    41A     -0.515498    42A     -0.502278  
      43A     -0.482816    44A     -0.481131    45A     -0.476835  
      46A     -0.472012    47A     -0.460304    48A     -0.455891  
      49A     -0.351721    50A     -0.336152    51A     -0.280419  

    Virtual:                                                              

      52A      0.117695    53A      0.124460    54A      0.136297  
      55A      0.145766    56A      0.158125    57A      0.165275  
      58A      0.173962    59A      0.184211    60A      0.190394  
      61A      0.193249    62A      0.208991    63A      0.216406  
      64A      0.223556    65A      0.225497    66A      0.232487  
      67A      0.236927    68A      0.242528    69A      0.248859  
      70A      0.255011    71A      0.290530    72A      0.302101  
      73A      0.312057    74A      0.330543    75A      0.341287  
      76A      0.349717    77A      0.354425    78A      0.364615  
      79A      0.373194    80A      0.377170    81A      0.390736  
      82A      0.392529    83A      0.421526    84A      0.429250  
      85A      0.438981    86A      0.446336    87A      0.461963  
      88A      0.470463    89A      0.472453    90A      0.479235  
      91A      0.484925    92A      0.492219    93A      0.497817  
      94A      0.503278    95A      0.525553    96A      0.529925  
      97A      0.538989    98A      0.545654    99A      0.554454  
     100A      0.564754   101A      0.570524   102A      0.571767  
     103A      0.575516   104A      0.586000   105A      0.591961  
     106A      0.593478   107A      0.596212   108A      0.602509  
     109A      0.607164   110A      0.612991   111A      0.621571  
     112A      0.622304   113A      0.628355   114A      0.629608  
     115A      0.635744   116A      0.639640   117A      0.647748  
     118A      0.653739   119A      0.655243   120A      0.662441  
     121A      0.668182   122A      0.672059   123A      0.675068  
     124A      0.679876   125A      0.685062   126A      0.686117  
     127A      0.698827   128A      0.710683   129A      0.713948  
     130A      0.728393   131A      0.730520   132A      0.738678  
     133A      0.757114   134A      0.763652   135A      0.769393  
     136A      0.774284   137A      0.779941   138A      0.807002  
     139A      0.824408   140A      0.837807   141A      0.846649  
     142A      0.854510   143A      0.860603   144A      0.883602  
     145A      0.887076   146A      0.905361   147A      0.910806  
     148A      0.912670   149A      0.930010   150A      0.936412  
     151A      0.941922   152A      0.946630   153A      0.960193  
     154A      0.981881   155A      0.986308   156A      0.991238  
     157A      1.000876   158A      1.012292   159A      1.019431  
     160A      1.025308   161A      1.030685   162A      1.045095  
     163A      1.049633   164A      1.054366   165A      1.068165  
     166A      1.076885   167A      1.091931   168A      1.096214  
     169A      1.099817   170A      1.107258   171A      1.139259  
     172A      1.148545   173A      1.150637   174A      1.159052  
     175A      1.168969   176A      1.174978   177A      1.183341  
     178A      1.187826   179A      1.202551   180A      1.203241  
     181A      1.211487   182A      1.214819   183A      1.225948  
     184A      1.235486   185A      1.243035   186A      1.245884  
     187A      1.261872   188A      1.271514   189A      1.285732  
     190A      1.292488   191A      1.304603   192A      1.305764  
     193A      1.307613   194A      1.316223   195A      1.328748  
     196A      1.335458   197A      1.358446   198A      1.359864  
     199A      1.370423   200A      1.380180   201A      1.383600  
     202A      1.389261   203A      1.397186   204A      1.409698  
     205A      1.420611   206A      1.425749   207A      1.433799  
     208A      1.444759   209A      1.452119   210A      1.455632  
     211A      1.465164   212A      1.468584   213A      1.484545  
     214A      1.490958   215A      1.505044   216A      1.506573  
     217A      1.509950   218A      1.519352   219A      1.532050  
     220A      1.537835   221A      1.540931   222A      1.551235  
     223A      1.559646   224A      1.561350   225A      1.567849  
     226A      1.572170   227A      1.584641   228A      1.588903  
     229A      1.608020   230A      1.615343   231A      1.625119  
     232A      1.626520   233A      1.637348   234A      1.645530  
     235A      1.661039   236A      1.667603   237A      1.680514  
     238A      1.687991   239A      1.689479   240A      1.701232  
     241A      1.705361   242A      1.726436   243A      1.741322  
     244A      1.749202   245A      1.755630   246A      1.762736  
     247A      1.778395   248A      1.782654   249A      1.806658  
     250A      1.818400   251A      1.821735   252A      1.838733  
     253A      1.844257   254A      1.866764   255A      1.903009  
     256A      1.932139   257A      1.953977   258A      1.956566  
     259A      1.972595   260A      1.985271   261A      2.003485  
     262A      2.014359   263A      2.025848   264A      2.090016  
     265A      2.174754   266A      2.180107   267A      2.196833  
     268A      2.224587   269A      2.254942   270A      2.273570  
     271A      2.333631   272A      2.366314   273A      2.378106  
     274A      2.415304   275A      2.446081   276A      2.460680  
     277A      2.471513   278A      2.507990   279A      2.517119  
     280A      2.534239   281A      2.556365   282A      2.561136  
     283A      2.586986   284A      2.616276   285A      2.628162  
     286A      2.636939   287A      2.645199   288A      2.658441  
     289A      2.672842   290A      2.685467   291A      2.703544  
     292A      2.710533   293A      2.731830   294A      2.738630  
     295A      2.754682   296A      2.761224   297A      2.775593  
     298A      2.784789   299A      2.802385   300A      2.807128  
     301A      2.814984   302A      2.827255   303A      2.833055  
     304A      2.834616   305A      2.850154   306A      2.854369  
     307A      2.861325   308A      2.868380   309A      2.884956  
     310A      2.888273   311A      2.899233   312A      2.902813  
     313A      2.926232   314A      2.935775   315A      2.947290  
     316A      2.953784   317A      2.956288   318A      2.962679  
     319A      2.964692   320A      2.986006   321A      2.995399  
     322A      3.003172   323A      3.007951   324A      3.012135  
     325A      3.023830   326A      3.030412   327A      3.041911  
     328A      3.051979   329A      3.063545   330A      3.064239  
     331A      3.082703   332A      3.086930   333A      3.090796  
     334A      3.103739   335A      3.122039   336A      3.126097  
     337A      3.141890   338A      3.143981   339A      3.146852  
     340A      3.165518   341A      3.175134   342A      3.178942  
     343A      3.183046   344A      3.198648   345A      3.228240  
     346A      3.234109   347A      3.242521   348A      3.254306  
     349A      3.257261   350A      3.262576   351A      3.266177  
     352A      3.284285   353A      3.288056   354A      3.295335  
     355A      3.304539   356A      3.314128   357A      3.320808  
     358A      3.330040   359A      3.341191   360A      3.344563  
     361A      3.349374   362A      3.354396   363A      3.359229  
     364A      3.365519   365A      3.368134   366A      3.383073  
     367A      3.388159   368A      3.392376   369A      3.395843  
     370A      3.402064   371A      3.406839   372A      3.409204  
     373A      3.416911   374A      3.425918   375A      3.426763  
     376A      3.437994   377A      3.446131   378A      3.452993  
     379A      3.461808   380A      3.469917   381A      3.472083  
     382A      3.475159   383A      3.486169   384A      3.499061  
     385A      3.509835   386A      3.515390   387A      3.518192  
     388A      3.526397   389A      3.529204   390A      3.549286  
     391A      3.551415   392A      3.554519   393A      3.569980  
     394A      3.579909   395A      3.587993   396A      3.597780  
     397A      3.599268   398A      3.613266   399A      3.619427  
     400A      3.632313   401A      3.643587   402A      3.649392  
     403A      3.655818   404A      3.663677   405A      3.666688  
     406A      3.677313   407A      3.683010   408A      3.690802  
     409A      3.702180   410A      3.714196   411A      3.719409  
     412A      3.724681   413A      3.729367   414A      3.740227  
     415A      3.749243   416A      3.751741   417A      3.757891  
     418A      3.772779   419A      3.777768   420A      3.784362  
     421A      3.790858   422A      3.800976   423A      3.808631  
     424A      3.812851   425A      3.825206   426A      3.836637  
     427A      3.848054   428A      3.855319   429A      3.870750  
     430A      3.871290   431A      3.887706   432A      3.903612  
     433A      3.910661   434A      3.926434   435A      3.934247  
     436A      3.951289   437A      3.961558   438A      3.969237  
     439A      3.980986   440A      3.992110   441A      3.996130  
     442A      4.004004   443A      4.010752   444A      4.021272  
     445A      4.031638   446A      4.036964   447A      4.050273  
     448A      4.052549   449A      4.070523   450A      4.093025  
     451A      4.096264   452A      4.108815   453A      4.110279  
     454A      4.115829   455A      4.119587   456A      4.129468  
     457A      4.133878   458A      4.143504   459A      4.154769  
     460A      4.158335   461A      4.167308   462A      4.172630  
     463A      4.184458   464A      4.191765   465A      4.195802  
     466A      4.205991   467A      4.217234   468A      4.227657  
     469A      4.233040   470A      4.238974   471A      4.247809  
     472A      4.261679   473A      4.266276   474A      4.283705  
     475A      4.286266   476A      4.297201   477A      4.313404  
     478A      4.320505   479A      4.331218   480A      4.340882  
     481A      4.354423   482A      4.358349   483A      4.360670  
     484A      4.380336   485A      4.384067   486A      4.388211  
     487A      4.401975   488A      4.411017   489A      4.420168  
     490A      4.434423   491A      4.440134   492A      4.445932  
     493A      4.454218   494A      4.471651   495A      4.480462  
     496A      4.489778   497A      4.495576   498A      4.510330  
     499A      4.515895   500A      4.522509   501A      4.538190  
     502A      4.541999   503A      4.556243   504A      4.561104  
     505A      4.564756   506A      4.572109   507A      4.575908  
     508A      4.597332   509A      4.611911   510A      4.616833  
     511A      4.623631   512A      4.633052   513A      4.641661  
     514A      4.657497   515A      4.670280   516A      4.675245  
     517A      4.687345   518A      4.695813   519A      4.706753  
     520A      4.714983   521A      4.730842   522A      4.744271  
     523A      4.757332   524A      4.763009   525A      4.770895  
     526A      4.794031   527A      4.809939   528A      4.817027  
     529A      4.832154   530A      4.843429   531A      4.852770  
     532A      4.884777   533A      4.899331   534A      4.905969  
     535A      4.935040   536A      4.961726   537A      4.973993  
     538A      5.000048   539A      5.014844   540A      5.018320  
     541A      5.031896   542A      5.052213   543A      5.056050  
     544A      5.071884   545A      5.090057   546A      5.094102  
     547A      5.107259   548A      5.122483   549A      5.131733  
     550A      5.144272   551A      5.160049   552A      5.187345  
     553A      5.199430   554A      5.218237   555A      5.227606  
     556A      5.261845   557A      5.267076   558A      5.282426  
     559A      5.288133   560A      5.302822   561A      5.309245  
     562A      5.334744   563A      5.339309   564A      5.343632  
     565A      5.354144   566A      5.368711   567A      5.378182  
     568A      5.384123   569A      5.403421   570A      5.410136  
     571A      5.427821   572A      5.437665   573A      5.452861  
     574A      5.463014   575A      5.472402   576A      5.485284  
     577A      5.501892   578A      5.549857   579A      5.560743  
     580A      5.575587   581A      5.580013   582A      5.589041  
     583A      5.596173   584A      5.607599   585A      5.624876  
     586A      5.631653   587A      5.651618   588A      5.687557  
     589A      5.696635   590A      5.708831   591A      5.713816  
     592A      5.724993   593A      5.747885   594A      5.774175  
     595A      5.808887   596A      5.830908   597A      5.851689  
     598A      5.893384   599A      5.906070   600A      5.961010  
     601A      5.979373   602A      5.987518   603A      6.063338  
     604A      6.101102   605A      6.119260   606A      6.130796  
     607A      6.156878   608A      6.229400   609A      6.262647  
     610A      6.271134   611A      6.284353   612A      6.301316  
     613A      6.322243   614A      6.376419   615A      6.388119  
     616A      6.396971   617A      6.425425   618A      6.431988  
     619A      6.455896   620A      6.486148   621A      6.627651  
     622A      6.774868   623A      6.792572   624A      7.027059  
     625A      7.270891   626A      7.313106   627A      7.384321  
     628A      7.430476   629A      7.807456   630A      7.927231  
     631A      9.354954   632A     10.308967   633A     12.067966  
     634A     12.540073   635A     12.773097   636A     13.177055  
     637A     13.319645   638A     13.470663   639A     13.668665  
     640A     13.965467   641A     14.407439   642A     14.453846  
     643A     14.706190   644A     15.876846  

    Final Occupation by Irrep:
              A 
    DOCC [    51 ]

  @DF-RHF Final Energy:  -576.61808396724905

   => Energetics <=

    Nuclear Repulsion Energy =            846.8024516550048020
    One-Electron Energy =               -2462.8650848843835774
    Two-Electron Energy =                1039.4445492621296125
    Total Energy =                       -576.6180839672490492

Computation Completed


Properties will be evaluated at   0.000000,   0.000000,   0.000000 [a0]

Properties computed using the SCF density matrix

  Nuclear Dipole Moment: [e a0]
     X:     7.9123      Y:     3.6112      Z:    -2.3754

  Electronic Dipole Moment: [e a0]
     X:    -7.8967      Y:    -3.1146      Z:     2.2688

  Dipole Moment: [e a0]
     X:     0.0157      Y:     0.4966      Z:    -0.1066     Total:     0.5082

  Dipole Moment: [D]
     X:     0.0398      Y:     1.2623      Z:    -0.2709     Total:     1.2917


*** tstop() called on skystd36.palmetto.clemson.edu at Sat Dec 11 17:50:25 2021
Module time:
	user time   =     128.34 seconds =       2.14 minutes
	system time =      11.29 seconds =       0.19 minutes
	total time  =        140 seconds =       2.33 minutes
Total time:
	user time   =     128.34 seconds =       2.14 minutes
	system time =      11.29 seconds =       0.19 minutes
	total time  =        140 seconds =       2.33 minutes

*** tstart() called on skystd36.palmetto.clemson.edu
*** at Sat Dec 11 17:50:25 2021


  //>>>>>>>>>>>>>>>>>>>>>>>>>>>>>>>>>>>//
  //               DFMP2               //
  //<<<<<<<<<<<<<<<<<<<<<<<<<<<<<<<<<<<//

   => Loading Basis Set <=

    Name: (CC-PVTZ AUX)
    Role: RIFIT
    Keyword: DF_BASIS_MP2
    atoms 1-12, 27            entry C          line   209 file /home/maxbuskirk/.conda/envs/psifour/share/psi4/basis/cc-pvtz-ri.gbs 
    atoms 13-14, 16-26, 28-30 entry H          line    19 file /home/maxbuskirk/.conda/envs/psifour/share/psi4/basis/cc-pvtz-ri.gbs 
    atoms 15                  entry O          line   305 file /home/maxbuskirk/.conda/envs/psifour/share/psi4/basis/cc-pvtz-ri.gbs 

	 --------------------------------------------------------
	                          DF-MP2                         
	      2nd-Order Density-Fitted Moller-Plesset Theory     
	              RMP2 Wavefunction,   1 Threads             
	                                                         
	        Rob Parrish, Justin Turney, Andy Simmonett,      
	           Ed Hohenstein, and C. David Sherrill          
	 --------------------------------------------------------

   => Auxiliary Basis Set <=

  Basis Set: (CC-PVTZ AUX)
    Blend: CC-PVTZ-RI
    Number of shells: 482
    Number of basis functions: 1614
    Number of Cartesian functions: 1974
    Spherical Harmonics?: true
    Max angular momentum: 4

	 --------------------------------------------------------
	                 NBF =   644, NAUX =  1614
	 --------------------------------------------------------
	   CLASS    FOCC     OCC    AOCC    AVIR     VIR    FVIR
	   PAIRS       0      51      51     593     593       0
	 --------------------------------------------------------


         ------------------------------------------------------------
                                     CPHF                           
                                  Rob Parrish                       
         ------------------------------------------------------------

  ==> Geometry <==

    Molecular point group: c1
    Full point group: C1

    Geometry (in Angstrom), charge = 0, multiplicity = 1:

       Center              X                  Y                   Z               Mass       
    ------------   -----------------  -----------------  -----------------  -----------------
         C            3.722577606396     1.354070256074     0.484348443354    12.000000000000
         C            2.211287606396     1.635036256074     0.576941443354    12.000000000000
         C            1.605319606396     0.408597256074    -0.088012556646    12.000000000000
         C            2.530347606396    -0.213782743926    -0.874413556646    12.000000000000
         C            3.865107606396     0.500063256074    -0.788380556646    12.000000000000
         C            0.184193606396     0.052027256074     0.069484443354    12.000000000000
         C           -0.226950393604    -1.292988743926     0.210065443354    12.000000000000
         C           -1.582920393604    -1.618590743926     0.365464443354    12.000000000000
         C           -2.554758393604    -0.605227743926     0.394710443354    12.000000000000
         C           -2.158283393604     0.737553256074     0.277671443354    12.000000000000
         C           -0.802851393604     1.062494256074     0.124019443354    12.000000000000
         C            2.331425606396    -1.358112743926    -1.822481556646    12.000000000000
         H           -0.504081393604     2.111323256074     0.031501443354     1.007825032230
         H           -2.907517393604     1.534610256074     0.308360443354     1.007825032230
         O           -3.888040393604    -0.924959743926     0.551330443354    15.994914619570
         H           -1.879809393604    -2.666001743926     0.477325443354     1.007825032230
         H            0.529639606396    -2.082808743926     0.229122443354     1.007825032230
         H            4.023592606396     0.748200256074     1.355482443354     1.007825032230
         H            4.338640606396     2.266922256074     0.473215443354     1.007825032230
         H            4.721144606396    -0.196256743926    -0.752033556646     1.007825032230
         H            4.006251606396     1.132565256074    -1.688002556646     1.007825032230
         H            1.266976606396    -1.589007743926    -1.975070556646     1.007825032230
         H            2.780103606396    -1.114519743926    -2.801560556646     1.007825032230
         H            2.836887606396    -2.271425743926    -1.460345556646     1.007825032230
         H            1.857285606396     1.779416256074     1.611265443354     1.007825032230
         H            1.943434606396     2.548100256074     0.009801443354     1.007825032230
         C           -4.652606393604     0.247828256074     0.548753443354    12.000000000000
         H           -5.704739393604    -0.004481743926     0.672346443354     1.007825032230
         H           -4.334639393604     0.890245256074     1.368581443354     1.007825032230
         H           -4.513162393604     0.769983256074    -0.396672556646     1.007825032230

  Nuclear repulsion =  846.802451655004802
  Reference energy  = -576.618083967249049

  ==> Basis Set <==

  Basis Set: CC-PVTZ
    Blend: CC-PVTZ
    Number of shells: 236
    Number of basis functions: 644
    Number of Cartesian functions: 730
    Spherical Harmonics?: true
    Max angular momentum: 3

  ==> CGRSolver (by Rob Parrish) <==

   Number of roots    =         1
   Preconditioning    =    JACOBI
   Convergence cutoff =     1E-06
   Maximum iterations =       100

  ==> CPHFRHamiltonian (by Rob Parrish) <== 

  ==> DiskDFJK: Density-Fitted J/K Matrices <==

    J tasked:                  Yes
    K tasked:                  Yes
    wK tasked:                  No
    OpenMP threads:              1
    Integrals threads:           1
    Memory [MiB]:              375
    Algorithm:                Disk
    Integral Cache:           NONE
    Schwarz Cutoff:          1E-12
    Fitting Condition:       1E-10

   => Auxiliary Basis Set <=

  Basis Set: (CC-PVTZ AUX)
    Blend: CC-PVTZ-JKFIT
    Number of shells: 510
    Number of basis functions: 1586
    Number of Cartesian functions: 1904
    Spherical Harmonics?: true
    Max angular momentum: 4

  ==> CPHF Iterations <==

  => Iterations <=

             Iter  Converged  Remaining    Residual
  CGR           1          0          1   8.657E-02
  CGR           2          0          1   2.186E-02
  CGR           3          0          1   9.978E-03
  CGR           4          0          1   4.560E-03
  CGR           5          0          1   2.211E-03
  CGR           6          0          1   1.103E-03
  CGR           7          0          1   3.999E-04
  CGR           8          0          1   1.407E-04
  CGR           9          0          1   4.652E-05
  CGR          10          0          1   1.625E-05
  CGR          11          0          1   7.109E-06
  CGR          12          0          1   2.611E-06
  CGR          13          0          1   1.121E-06
  CGR          14          1          0   3.483E-07

    CGRSolver converged.

  ==> DFCorrGrad: Density-Fitted Correlated Gradients <==

    OpenMP threads:              1
    Integrals threads:           1
    Memory [GiB]:            0.366
    Schwarz Cutoff:          0E+00
    Fitting Condition:       1E-10

   => Auxiliary Basis Set <=

  Basis Set: (CC-PVTZ AUX)
    Blend: CC-PVTZ-JKFIT
    Number of shells: 510
    Number of basis functions: 1586
    Number of Cartesian functions: 1904
    Spherical Harmonics?: true
    Max angular momentum: 4

	-----------------------------------------------------------
	 ==================> DF-MP2 Energies <==================== 
	-----------------------------------------------------------
	 Reference Energy          =    -576.6180839672490492 [Eh]
	 Singles Energy            =      -0.0000000000000000 [Eh]
	 Same-Spin Energy          =      -0.6210751918473022 [Eh]
	 Opposite-Spin Energy      =      -1.9637183293844103 [Eh]
	 Correlation Energy        =      -2.5847935212317124 [Eh]
	 Total Energy              =    -579.2028774884807945 [Eh]
	-----------------------------------------------------------
	 ================> DF-SCS-MP2 Energies <================== 
	-----------------------------------------------------------
	 SCS Same-Spin Scale       =       0.3333333333333333 [-]
	 SCS Opposite-Spin Scale   =       1.2000000000000000 [-]
	 SCS Same-Spin Energy      =      -0.2070250639491007 [Eh]
	 SCS Opposite-Spin Energy  =      -2.3564619952612924 [Eh]
	 SCS Correlation Energy    =      -2.5634870592103933 [Eh]
	 SCS Total Energy          =    -579.1815710264594372 [Eh]
	-----------------------------------------------------------


  -Total Gradient:
     Atom            X                  Y                   Z
    ------   -----------------  -----------------  -----------------
       1       -0.002361297992    -0.000822767422    -0.002410473527
       2        0.002995561427    -0.001143382796    -0.000314125013
       3       -0.003225155760     0.005415014672     0.006706177584
       4        0.006050228669    -0.006274091951    -0.006413859388
       5       -0.000952583254     0.001843101501     0.002669763825
       6       -0.000353538102    -0.003570674026    -0.000923854111
       7        0.008432278240    -0.005737992154    -0.000305236843
       8       -0.003155362081     0.002278324523    -0.000003218136
       9       -0.002269569062    -0.003686846437     0.000234324423
      10       -0.010057192452    -0.006163443054     0.001424275244
      11       -0.002214758780     0.009979896187    -0.000287977699
      12       -0.000043470309     0.000766073901     0.000813194335
      13        0.003615700927     0.010981398269    -0.001160003871
      14       -0.019318132268     0.009359792347     0.001502058290
      15       -0.021163552281     0.003458510935     0.002114310564
      16       -0.001026213054    -0.012069610077     0.000891103905
      17        0.008809097901    -0.007986198627     0.000398547505
      18        0.003055344137    -0.005516609329     0.008338473990
      19        0.006053669420     0.008784893592     0.000112767606
      20        0.008300079465    -0.006516232852    -0.000022887735
      21        0.001552078110     0.005582569783    -0.008269237552
      22       -0.009400454746    -0.002215889899    -0.001689542217
      23        0.003968562493     0.002048242026    -0.008947172259
      24        0.004504909151    -0.008358678176     0.003131410052
      25       -0.003575566863     0.001770049135     0.009885032603
      26       -0.002534432009     0.008318275696    -0.004962918131
      27        0.018370946792    -0.001975243010    -0.001797478777
      28       -0.005409146067     0.003935080666     0.000291048062
      29        0.006009375971    -0.001064554423     0.000740380829
      30        0.005342592388    -0.001419009009    -0.001744883560


*** tstop() called on skystd36.palmetto.clemson.edu at Sat Dec 11 18:01:13 2021
Module time:
	user time   =     628.00 seconds =      10.47 minutes
	system time =      18.38 seconds =       0.31 minutes
	total time  =        648 seconds =      10.80 minutes
Total time:
	user time   =     756.34 seconds =      12.61 minutes
	system time =      29.67 seconds =       0.49 minutes
	total time  =        788 seconds =      13.13 minutes

			-----------------------------------------
			 OPTKING 2.0: for geometry optimizations 
			  - R.A. King,  Bethel University        
			-----------------------------------------

	Internal coordinates to be generated automatically.
	Detected frag 1 with atoms:  1 2 3 4 5 6 7 8 9 10 11 12 13 14 15 16 17 18 19 20
	 21 22 23 24 25 26 27 28 29 30
	---Fragment 1 Bond Connectivity---
	 1 : 2 5 18 19
	 2 : 1 3 25 26
	 3 : 2 4 6
	 4 : 3 5 12
	 5 : 1 4 20 21
	 6 : 3 7 11
	 7 : 6 8 17
	 8 : 7 9 16
	 9 : 8 10 15
	 10 : 9 11 14
	 11 : 6 10 13
	 12 : 4 22 23 24
	 13 : 11
	 14 : 10
	 15 : 9 27
	 16 : 8
	 17 : 7
	 18 : 1
	 19 : 1
	 20 : 5
	 21 : 5
	 22 : 12
	 23 : 12
	 24 : 12
	 25 : 2
	 26 : 2
	 27 : 15 28 29 30
	 28 : 27
	 29 : 27
	 30 : 27

	---Fragment 1 Geometry and Gradient---
	 C           7.0346521569        2.5588219386        0.9152859072
	 C           4.1787279607        3.0897707292        1.0902613184
	 C           3.0336143999        0.7721369096       -0.1663196277
	 C           4.7816639783       -0.4039908364       -1.6524021424
	 C           7.3039948215        0.9449825994       -1.4898233347
	 C           0.3480754701        0.0983172650        0.1313065679
	 C          -0.4288740880       -2.4433946093        0.3969661564
	 C          -2.9912860223       -3.0586932152        0.6906277065
	 C          -4.8277936806       -1.1437146795        0.7458946368
	 C          -4.0785645150        1.3937736569        0.5247229808
	 C          -1.5171692534        2.0078231539        0.2343627822
	 C           4.4057558780       -2.5664611335       -3.4439910108
	 H          -0.9525757788        3.9898227163        0.0595291005
	 H          -5.4944115789        2.8999930933        0.5827167859
	 O          -7.3473315086       -1.7479205931        1.0418635426
	 H          -3.5523249220       -5.0380131460        0.9020143607
	 H           1.0008738013       -3.9359380977        0.4329786671
	 H           7.6034880665        1.4138935710        2.5614905858
	 H           8.1988425029        4.2838622117        0.8942475863
	 H           8.9216703048       -0.3708714963       -1.4211374592
	 H           7.5707183258        2.1402381532       -3.1898625311
	 H           2.3942387935       -3.0027894473       -3.7323424305
	 H           5.2536344165       -2.1061370774       -5.2941821759
	 H           5.3609406248       -4.2923725703       -2.7596531506
	 H           3.5097611328        3.3626093872        3.0448504034
	 H           3.6725591488        4.8152116242        0.0185220436
	 C          -8.7921518535        0.4683275301        1.0369937183
	 H         -10.7803950710       -0.0084692686        1.2705506394
	 H          -8.1912813065        1.6823197185        2.5862441083
	 H          -8.5286408836        1.4550574752       -0.7496024935
	            -0.0023612980       -0.0008227674       -0.0024104735
	             0.0029955614       -0.0011433828       -0.0003141250
	            -0.0032251558        0.0054150147        0.0067061776
	             0.0060502287       -0.0062740920       -0.0064138594
	            -0.0009525833        0.0018431015        0.0026697638
	            -0.0003535381       -0.0035706740       -0.0009238541
	             0.0084322782       -0.0057379922       -0.0003052368
	            -0.0031553621        0.0022783245       -0.0000032181
	            -0.0022695691       -0.0036868464        0.0002343244
	            -0.0100571925       -0.0061634431        0.0014242752
	            -0.0022147588        0.0099798962       -0.0002879777
	            -0.0000434703        0.0007660739        0.0008131943
	             0.0036157009        0.0109813983       -0.0011600039
	            -0.0193181323        0.0093597923        0.0015020583
	            -0.0211635523        0.0034585109        0.0021143106
	            -0.0010262131       -0.0120696101        0.0008911039
	             0.0088090979       -0.0079861986        0.0003985475
	             0.0030553441       -0.0055166093        0.0083384740
	             0.0060536694        0.0087848936        0.0001127676
	             0.0083000795       -0.0065162329       -0.0000228877
	             0.0015520781        0.0055825698       -0.0082692376
	            -0.0094004547       -0.0022158899       -0.0016895422
	             0.0039685625        0.0020482420       -0.0089471723
	             0.0045049092       -0.0083586782        0.0031314101
	            -0.0035755669        0.0017700491        0.0098850326
	            -0.0025344320        0.0083182757       -0.0049629181
	             0.0183709468       -0.0019752430       -0.0017974788
	            -0.0054091461        0.0039350807        0.0002910481
	             0.0060093760       -0.0010645544        0.0007403808
	             0.0053425924       -0.0014190090       -0.0017448836

	Previous optimization step data not found.  Starting new optimization.

	---Fragment 1 Intrafragment Coordinates---
	 - Coordinate -           - BOHR/RAD -       - ANG/DEG -
	 R(1,2)           =         2.910125	       1.539972
	 R(1,5)           =         2.908878	       1.539312
	 R(1,18)          =         2.084328	       1.102979
	 R(1,19)          =         2.081237	       1.101343
	 R(2,3)           =         2.874319	       1.521024
	 R(2,25)          =         2.083837	       1.102719
	 R(2,26)          =         2.093318	       1.107736
	 R(3,4)           =         2.578254	       1.364353
	 R(3,6)           =         2.784732	       1.473617
	 R(4,5)           =         2.865016	       1.516101
	 R(4,12)          =         2.833262	       1.499298
	 R(5,20)          =         2.086400	       1.104075
	 R(5,21)          =         2.095211	       1.108738
	 R(6,7)           =         2.671053	       1.413460
	 R(6,11)          =         2.671324	       1.413604
	 R(7,8)           =         2.651563	       1.403147
	 R(7,17)          =         2.067163	       1.093895
	 R(8,9)           =         2.653857	       1.404361
	 R(8,16)          =         2.068129	       1.094407
	 R(9,10)          =         2.655016	       1.404974
	 R(9,15)          =         2.607822	       1.380000
	 R(10,11)         =         2.649927	       1.402281
	 R(10,14)         =         2.068014	       1.094346
	 R(11,13)         =         2.068249	       1.094470
	 R(12,22)         =         2.078396	       1.099840
	 R(12,23)         =         2.086625	       1.104194
	 R(12,24)         =         2.087934	       1.104887
	 R(15,27)         =         2.645616	       1.400000
	 R(27,28)         =         2.057910	       1.088999
	 R(27,29)         =         2.057911	       1.089000
	 R(27,30)         =         2.057912	       1.089000
	 B(1,2,3)         =         1.790127	     102.566700
	 B(1,2,25)        =         1.977226	     113.286730
	 B(1,2,26)        =         1.935744	     110.909973
	 B(1,5,4)         =         1.799406	     103.098356
	 B(1,5,20)        =         1.976291	     113.233108
	 B(1,5,21)        =         1.945680	     111.479279
	 B(2,1,5)         =         1.815021	     103.993068
	 B(2,1,18)        =         1.897117	     108.696781
	 B(2,1,19)        =         1.980503	     113.474479
	 B(2,3,4)         =         1.928043	     110.468727
	 B(2,3,6)         =         2.132448	     122.180296
	 B(3,2,25)        =         1.968972	     112.813790
	 B(3,2,26)        =         1.922464	     110.149081
	 B(3,4,5)         =         1.927736	     110.451137
	 B(3,4,12)        =         2.242975	     128.512983
	 B(3,6,7)         =         2.119286	     121.426120
	 B(3,6,11)        =         2.099640	     120.300495
	 B(4,3,6)         =         2.220651	     127.233923
	 B(4,5,20)        =         1.968736	     112.800279
	 B(4,5,21)        =         1.912013	     109.550255
	 B(4,12,22)       =         1.956670	     112.108928
	 B(4,12,23)       =         1.916015	     109.779573
	 B(4,12,24)       =         1.942233	     111.281772
	 B(5,1,18)        =         1.899693	     108.844371
	 B(5,1,19)        =         1.981979	     113.559042
	 B(5,4,12)        =         2.108376	     120.801049
	 B(6,7,8)         =         2.109388	     120.859024
	 B(6,7,17)        =         2.080147	     119.183628
	 B(6,11,10)       =         2.110063	     120.897728
	 B(6,11,13)       =         2.084192	     119.415378
	 B(7,6,11)        =         2.063785	     118.246186
	 B(7,8,9)         =         2.098568	     120.239106
	 B(7,8,16)        =         2.089281	     119.706964
	 B(8,7,17)        =         2.093145	     119.928351
	 B(8,9,10)        =         2.085899	     119.513219
	 B(8,9,15)        =         2.098751	     120.249566
	 B(9,8,16)        =         2.095250	     120.048967
	 B(9,10,11)       =         2.098279	     120.222516
	 B(9,10,14)       =         2.095045	     120.037222
	 B(9,15,27)       =         1.910634	     109.471247
	 B(10,9,15)       =         2.098475	     120.233743
	 B(10,11,13)      =         2.088843	     119.681864
	 B(11,10,14)      =         2.089860	     119.740132
	 B(15,27,28)      =         1.910634	     109.471256
	 B(15,27,29)      =         1.910633	     109.471207
	 B(15,27,30)      =         1.910633	     109.471199
	 B(18,1,19)       =         1.886638	     108.096378
	 B(20,5,21)       =         1.862719	     106.725958
	 B(22,12,23)      =         1.892897	     108.455036
	 B(22,12,24)      =         1.890932	     108.342411
	 B(23,12,24)      =         1.861979	     106.683530
	 B(25,2,26)       =         1.869917	     107.138345
	 B(28,27,29)      =         1.910633	     109.471228
	 B(28,27,30)      =         1.910633	     109.471215
	 B(29,27,30)      =         1.910633	     109.471219
	 D(1,2,3,4)       =        -0.348852	     -19.987768
	 D(1,2,3,6)       =         2.856778	     163.681328
	 D(1,5,4,3)       =         0.300808	      17.235016
	 D(1,5,4,12)      =        -2.930014	    -167.877438
	 D(2,1,5,4)       =        -0.499803	     -28.636594
	 D(2,1,5,20)      =        -2.632586	    -150.836039
	 D(2,1,5,21)      =         1.549857	      88.800282
	 D(2,3,4,5)       =         0.031048	       1.778925
	 D(2,3,4,12)      =        -3.012567	    -172.607364
	 D(2,3,6,7)       =        -2.462500	    -141.090867
	 D(2,3,6,11)      =         0.645400	      36.978697
	 D(3,2,1,5)       =         0.514363	      29.470838
	 D(3,2,1,18)      =        -1.507311	     -86.362554
	 D(3,2,1,19)      =         2.676299	     153.340666
	 D(3,4,5,20)      =         2.438658	     139.724821
	 D(3,4,5,21)      =        -1.772435	    -101.553028
	 D(3,4,12,22)     =         0.167316	       9.586503
	 D(3,4,12,23)     =         2.272366	     130.196980
	 D(3,4,12,24)     =        -1.953574	    -111.931530
	 D(3,6,7,8)       =         3.136447	     179.705195
	 D(3,6,7,17)      =         0.029066	       1.665353
	 D(3,6,11,10)     =        -3.138209	    -179.806114
	 D(3,6,11,13)     =         0.017671	       1.012458
	 D(4,3,2,25)      =        -2.482003	    -142.208323
	 D(4,3,2,26)      =         1.712697	      98.130327
	 D(4,3,6,7)       =         0.754466	      43.227732
	 D(4,3,6,11)      =        -2.420819	    -138.702704
	 D(4,5,1,18)      =         1.520059	      87.092954
	 D(4,5,1,19)      =        -2.660781	    -152.451540
	 D(5,1,2,25)      =         2.641906	     151.370088
	 D(5,1,2,26)      =        -1.537774	     -88.107935
	 D(5,4,3,6)       =         3.104559	     177.878117
	 D(5,4,12,22)     =        -2.867367	    -164.288012
	 D(5,4,12,23)     =        -0.762317	     -43.677535
	 D(5,4,12,24)     =         1.294929	      74.193955
	 D(6,3,2,25)      =         0.723627	      41.460773
	 D(6,3,2,26)      =        -1.364858	     -78.200577
	 D(6,3,4,12)      =         0.060944	       3.491829
	 D(6,7,8,9)       =        -0.009298	      -0.532741
	 D(6,7,8,16)      =        -3.136753	    -179.722706
	 D(6,11,10,9)     =         0.012040	       0.689867
	 D(6,11,10,14)    =        -3.131840	    -179.441216
	 D(7,6,11,10)     =        -0.029252	      -1.676026
	 D(7,6,11,13)     =         3.126627	     179.142545
	 D(7,8,9,10)      =        -0.008597	      -0.492558
	 D(7,8,9,15)      =        -3.138386	    -179.816299
	 D(8,7,6,11)      =         0.027876	       1.597200
	 D(8,9,10,11)     =         0.007241	       0.414863
	 D(8,9,10,14)     =        -3.132057	    -179.453662
	 D(8,9,15,27)     =         3.141593	     180.000000
	 D(9,8,7,17)      =         3.097830	     177.492594
	 D(9,10,11,13)    =         3.139309	     179.869135
	 D(9,15,27,28)    =         3.141593	     180.000000
	 D(9,15,27,29)    =        -1.047198	     -60.000009
	 D(9,15,27,30)    =         1.047197	      59.999968
	 D(10,9,8,16)     =         3.118810	     178.694624
	 D(10,9,15,27)    =         0.011888	       0.681160
	 D(11,6,7,17)     =        -3.079505	    -176.442642
	 D(11,10,9,15)    =         3.137032	     179.738713
	 D(12,4,5,20)     =        -0.792164	     -45.387633
	 D(12,4,5,21)     =         1.279929	      73.334518
	 D(13,11,10,14)   =        -0.004572	      -0.261949
	 D(14,10,9,15)    =        -0.002266	      -0.129813
	 D(15,9,8,16)     =        -0.010980	      -0.629117
	 D(16,8,7,17)     =        -0.029625	      -1.697371
	 D(18,1,2,25)     =         0.620232	      35.536695
	 D(18,1,2,26)     =         2.723738	     156.058672
	 D(18,1,5,20)     =        -0.612724	     -35.106492
	 D(18,1,5,21)     =        -2.713466	    -155.470171
	 D(19,1,2,25)     =        -1.479343	     -84.760085
	 D(19,1,2,26)     =         0.624163	      35.761892
	 D(19,1,5,20)     =         1.489621	      85.349014
	 D(19,1,5,21)     =        -0.611121	     -35.014665
	 R(7,12)          =         6.175900	       3.268146

	Current energy   :      -579.2028774885

	Generating empirical Hessian (Schlegel '84) for each fragment.
	Taking RFO optimization step.
	Going to follow RFO solution 1.
	Using RFO vector 1.
	Norm of target step-size    0.38938
	Projected energy change by RFO approximation:        -0.0410806207

	Back-transformation to cartesian coordinates...
	Successfully converged to displaced geometry.

	--- Internal Coordinate Step in ANG or DEG, aJ/ANG or AJ/DEG ---
	 ---------------------------------------------------------------------------
	   Coordinate                Previous        Force       Change         New 
	   ----------                --------       ------       ------       ------
	    1 R(1,2)          =      1.539972    -0.071998    -0.013061     1.526910
	    2 R(1,5)          =      1.539312    -0.073672    -0.012578     1.526734
	    3 R(1,18)         =      1.102979    -0.086094    -0.014566     1.088413
	    4 R(1,19)         =      1.101343    -0.087878    -0.014798     1.086545
	    5 R(2,3)          =      1.521024    -0.072991    -0.014319     1.506705
	    6 R(2,25)         =      1.102719    -0.087755    -0.014836     1.087883
	    7 R(2,26)         =      1.107736    -0.082471    -0.014144     1.093592
	    8 R(3,4)          =      1.364353    -0.134356    -0.017847     1.346506
	    9 R(3,6)          =      1.473617    -0.105028    -0.018886     1.454731
	   10 R(4,5)          =      1.516101    -0.075424    -0.013887     1.502214
	   11 R(4,12)         =      1.499298    -0.078071    -0.014314     1.484984
	   12 R(5,20)         =      1.104075    -0.086872    -0.014744     1.089331
	   13 R(5,21)         =      1.108738    -0.083144    -0.014301     1.094438
	   14 R(6,7)          =      1.413460    -0.139640    -0.019831     1.393629
	   15 R(6,11)         =      1.413604    -0.171948    -0.023643     1.389961
	   16 R(7,8)          =      1.403147    -0.163790    -0.021085     1.382062
	   17 R(7,17)         =      1.093895    -0.097760    -0.016110     1.077785
	   18 R(8,9)          =      1.404361    -0.121543    -0.015112     1.389248
	   19 R(8,16)         =      1.094407    -0.098212    -0.016209     1.078198
	   20 R(9,10)         =      1.404974    -0.013522    -0.001189     1.403785
	   21 R(9,15)         =      1.380000     0.031048     0.003713     1.383713
	   22 R(10,11)        =      1.402281    -0.113746    -0.014734     1.387547
	   23 R(10,14)        =      1.094346    -0.165477    -0.027305     1.067041
	   24 R(11,13)        =      1.094470    -0.095639    -0.015787     1.078683
	   25 R(12,22)        =      1.099840    -0.080719    -0.013533     1.086306
	   26 R(12,23)        =      1.104194    -0.082369    -0.013984     1.090210
	   27 R(12,24)        =      1.104887    -0.082359    -0.014010     1.090876
	   28 R(15,27)        =      1.400000     0.112972     0.014446     1.414446
	   29 R(27,28)        =      1.088999    -0.035817    -0.005818     1.083181
	   30 R(27,29)        =      1.089000    -0.013874    -0.002254     1.086746
	   31 R(27,30)        =      1.089000    -0.012511    -0.002032     1.086967
	   32 B(1,2,3)        =    102.566700    -0.000001    -0.258174   102.308526
	   33 B(1,2,25)       =    113.286730    -0.000027     0.312918   113.599648
	   34 B(1,2,26)       =    110.909973     0.000015    -0.006617   110.903356
	   35 B(1,5,4)        =    103.098356    -0.000026    -0.549407   102.548948
	   36 B(1,5,20)       =    113.233108    -0.000008     0.294279   113.527387
	   37 B(1,5,21)       =    111.479279     0.000006    -0.253416   111.225863
	   38 B(2,1,5)        =    103.993068    -0.000133     0.348673   104.341742
	   39 B(2,1,18)       =    108.696781     0.000016    -0.114258   108.582522
	   40 B(2,1,19)       =    113.474479     0.000056     0.040006   113.514485
	   41 B(2,3,4)        =    110.468727     0.000041     0.014133   110.482860
	   42 B(2,3,6)        =    122.180296    -0.000358    -0.593815   121.586481
	   43 B(3,2,25)       =    112.813790     0.000006    -0.228790   112.585001
	   44 B(3,2,26)       =    110.149081    -0.000009     0.277951   110.427032
	   45 B(3,4,5)        =    110.451137     0.000115     0.523004   110.974140
	   46 B(3,4,12)       =    128.512983     0.000144    -0.027563   128.485420
	   47 B(3,6,7)        =    121.426120     0.000355     0.714829   122.140949
	   48 B(3,6,11)       =    120.300495    -0.000042     0.108303   120.408798
	   49 B(4,3,6)        =    127.233923     0.000315     0.575386   127.809308
	   50 B(4,5,20)       =    112.800279     0.000020     0.129301   112.929579
	   51 B(4,5,21)       =    109.550255    -0.000008     0.317704   109.867959
	   52 B(4,12,22)      =    112.108928    -0.000031    -0.441853   111.667075
	   53 B(4,12,23)      =    109.779573    -0.000010    -0.490020   109.289553
	   54 B(4,12,24)      =    111.281772    -0.000013     0.421925   111.703696
	   55 B(5,1,18)       =    108.844371     0.000018    -0.476687   108.367684
	   56 B(5,1,19)       =    113.559042     0.000050    -0.165112   113.393930
	   57 B(5,4,12)       =    120.801049    -0.000261    -0.500538   120.300511
	   58 B(6,7,8)        =    120.859024     0.000299     0.538165   121.397188
	   59 B(6,7,17)       =    119.183628    -0.000086     0.013027   119.196656
	   60 B(6,11,10)      =    120.897728     0.000362     0.884207   121.781935
	   61 B(6,11,13)      =    119.415378    -0.000143    -0.280173   119.135205
	   62 B(7,6,11)       =    118.246186    -0.000314    -0.824614   117.421572
	   63 B(7,8,9)        =    120.239106     0.000372     0.916933   121.156038
	   64 B(7,8,16)       =    119.706964    -0.000003     0.191086   119.898050
	   65 B(8,7,17)       =    119.928351    -0.000213    -0.546890   119.381460
	   66 B(8,9,10)       =    119.513219    -0.000676    -1.536855   117.976364
	   67 B(8,9,15)       =    120.249566    -0.002828    -7.200353   113.049212
	   68 B(9,8,16)       =    120.048967    -0.000369    -1.107719   118.941248
	   69 B(9,10,11)      =    120.222516    -0.000044     0.020422   120.242938
	   70 B(9,10,14)      =    120.037222     0.000630     2.263767   122.300990
	   71 B(9,15,27)      =    109.471247     0.005912    14.724804   124.196051
	   72 B(10,9,15)      =    120.233743     0.003504     8.738012   128.971755
	   73 B(10,11,13)     =    119.681864    -0.000219    -0.603875   119.077988
	   74 B(11,10,14)     =    119.740132    -0.000586    -2.284152   117.455980
	   75 B(15,27,28)     =    109.471256    -0.000951    -3.295815   106.175441
	   76 B(15,27,29)     =    109.471207     0.000670     3.070057   112.541263
	   77 B(15,27,30)     =    109.471199     0.000658     3.337051   112.808250
	   78 B(18,1,19)      =    108.096378    -0.000010     0.329018   108.425395
	   79 B(20,5,21)      =    106.725958     0.000014     0.055527   106.781485
	   80 B(22,12,23)     =    108.455036     0.000026     0.547481   109.002517
	   81 B(22,12,24)     =    108.342411     0.000018    -0.004773   108.337639
	   82 B(23,12,24)     =    106.683530     0.000013     0.001173   106.684702
	   83 B(25,2,26)      =    107.138345     0.000015    -0.087890   107.050455
	   84 B(28,27,29)     =    109.471228    -0.000162    -0.571050   108.900178
	   85 B(28,27,30)     =    109.471215    -0.000145    -0.898116   108.573100
	   86 B(29,27,30)     =    109.471219    -0.000071    -1.745702   107.725518
	   87 D(1,2,3,4)      =    -19.987768    -0.000007     0.052588   -19.935180
	   88 D(1,2,3,6)      =    163.681328    -0.000006     0.093065   163.774393
	   89 D(1,5,4,3)      =     17.235016     0.000002    -0.181789    17.053227
	   90 D(1,5,4,12)     =   -167.877438     0.000001    -0.233504  -168.110943
	   91 D(2,1,5,4)      =    -28.636594     0.000008     0.184398   -28.452196
	   92 D(2,1,5,20)     =   -150.836039     0.000007     0.227247  -150.608792
	   93 D(2,1,5,21)     =     88.800282     0.000003     0.132241    88.932523
	   94 D(2,3,4,5)      =      1.778925     0.000003     0.073456     1.852381
	   95 D(2,3,4,12)     =   -172.607364     0.000011     0.157498  -172.449866
	   96 D(2,3,6,7)      =   -141.090867     0.000004    -0.268676  -141.359543
	   97 D(2,3,6,11)     =     36.978697    -0.000003    -0.336940    36.641757
	   98 D(3,2,1,5)      =     29.470838    -0.000005    -0.055702    29.415137
	   99 D(3,2,1,18)     =    -86.362554     0.000004     0.367488   -85.995066
	  100 D(3,2,1,19)     =    153.340666    -0.000004     0.004709   153.345375
	  101 D(3,4,5,20)     =    139.724821    -0.000001    -0.110062   139.614758
	  102 D(3,4,5,21)     =   -101.553028     0.000005     0.258863  -101.294165
	  103 D(3,4,12,22)    =      9.586503    -0.000004    -0.089996     9.496507
	  104 D(3,4,12,23)    =    130.196980    -0.000002    -0.020068   130.176912
	  105 D(3,4,12,24)    =   -111.931530    -0.000002    -0.071617  -112.003147
	  106 D(3,6,7,8)      =    179.705195    -0.000002    -0.000370   179.704825
	  107 D(3,6,7,17)     =      1.665353    -0.000006    -0.141398     1.523955
	  108 D(3,6,11,10)    =   -179.806114     0.000001    -0.030066  -179.836179
	  109 D(3,6,11,13)    =      1.012458     0.000001    -0.038013     0.974445
	  110 D(4,3,2,25)     =   -142.208323    -0.000000    -0.040518  -142.248840
	  111 D(4,3,2,26)     =     98.130327    -0.000004     0.030704    98.161031
	  112 D(4,3,6,7)      =     43.227732     0.000009    -0.187546    43.040186
	  113 D(4,3,6,11)     =   -138.702704     0.000002    -0.255809  -138.958513
	  114 D(4,5,1,18)     =     87.092954    -0.000001     0.015642    87.108595
	  115 D(4,5,1,19)     =   -152.451540     0.000006    -0.008529  -152.460069
	  116 D(5,1,2,25)     =    151.370088    -0.000007    -0.334529   151.035559
	  117 D(5,1,2,26)     =    -88.107935    -0.000004    -0.234207   -88.342142
	  118 D(5,4,3,6)      =    177.878117    -0.000005    -0.025914   177.852204
	  119 D(5,4,12,22)    =   -164.288012     0.000000    -0.051731  -164.339743
	  120 D(5,4,12,23)    =    -43.677535     0.000002     0.018197   -43.659338
	  121 D(5,4,12,24)    =     74.193955     0.000002    -0.033352    74.160603
	  122 D(6,3,2,25)     =     41.460773     0.000000    -0.000040    41.460733
	  123 D(6,3,2,26)     =    -78.200577    -0.000003     0.071181   -78.129396
	  124 D(6,3,4,12)     =      3.491829     0.000003     0.058128     3.549958
	  125 D(6,7,8,9)      =     -0.532741    -0.000002    -0.010823    -0.543563
	  126 D(6,7,8,16)     =   -179.722706    -0.000002    -0.026833  -179.749539
	  127 D(6,11,10,9)    =      0.689867     0.000001     0.043598     0.733465
	  128 D(6,11,10,14)   =   -179.441216     0.000001     0.066519  -179.374697
	  129 D(7,6,11,10)    =     -1.676026    -0.000003    -0.066723    -1.742749
	  130 D(7,6,11,13)    =    179.142545    -0.000003    -0.074671   179.067875
	  131 D(7,8,9,10)     =     -0.492558    -0.000000    -0.022061    -0.514620
	  132 D(7,8,9,15)     =   -179.816299    -0.000007    -0.157374  -179.973673
	  133 D(8,7,6,11)     =      1.597200     0.000003     0.049546     1.646746
	  134 D(8,9,10,11)    =      0.414863     0.000001     0.007643     0.422506
	  135 D(8,9,10,14)    =   -179.453662     0.000002    -0.010280  -179.463943
	  136 D(8,9,15,27)    =    180.000000    -0.000003    -0.167088   179.832912
	  137 D(9,8,7,17)     =    177.492594     0.000002     0.141417   177.634011
	  138 D(9,10,11,13)   =    179.869135     0.000002     0.054158   179.923292
	  139 D(9,15,27,28)   =    180.000000    -0.000004    -0.384295   179.615705
	  140 D(9,15,27,29)   =    -60.000009    -0.000088    -1.334991   -61.335000
	  141 D(9,15,27,30)   =     59.999968     0.000078     0.815666    60.815634
	  142 D(10,9,8,16)    =    178.694624     0.000001     0.004175   178.698799
	  143 D(10,9,15,27)   =      0.681160    -0.000003    -0.233764     0.447396
	  144 D(11,6,7,17)    =   -176.442642    -0.000000    -0.091482  -176.534124
	  145 D(11,10,9,15)   =    179.738713    -0.000003     0.043545   179.782257
	  146 D(12,4,5,20)    =    -45.387633    -0.000003    -0.161778   -45.549411
	  147 D(12,4,5,21)    =     73.334518     0.000003     0.207147    73.541665
	  148 D(13,11,10,14)  =     -0.261949     0.000001     0.077078    -0.184870
	  149 D(14,10,9,15)   =     -0.129813    -0.000002     0.025621    -0.104191
	  150 D(15,9,8,16)    =     -0.629117    -0.000006    -0.131138    -0.760254
	  151 D(16,8,7,17)    =     -1.697371     0.000002     0.125406    -1.571965
	  152 D(18,1,2,25)    =     35.536695     0.000002     0.088661    35.625356
	  153 D(18,1,2,26)    =    156.058672     0.000005     0.188983   156.247655
	  154 D(18,1,5,20)    =    -35.106492    -0.000002     0.058491   -35.048001
	  155 D(18,1,5,21)    =   -155.470171    -0.000006    -0.036515  -155.506686
	  156 D(19,1,2,25)    =    -84.760085    -0.000006    -0.274118   -85.034203
	  157 D(19,1,2,26)    =     35.761892    -0.000003    -0.173796    35.588096
	  158 D(19,1,5,20)    =     85.349014     0.000005     0.034320    85.383335
	  159 D(19,1,5,21)    =    -35.014665     0.000001    -0.060686   -35.075350
	  160 R(7,12)         =      3.268146    -0.021836    -0.011572     3.256573
	 ---------------------------------------------------------------------------
	Successfully symmetrized geometry.

  ==> Convergence Check <==

  Measures of convergence in internal coordinates in au.
  Criteria marked as inactive (o), active & met (*), and active & unmet ( ).
  --------------------------------------------------------------------------------------------- ~
   Step     Total Energy     Delta E     MAX Force     RMS Force      MAX Disp      RMS Disp    ~
  --------------------------------------------------------------------------------------------- ~
    Convergence Criteria    1.00e-06 *    3.00e-04 *             o    1.20e-03 *             o  ~
  --------------------------------------------------------------------------------------------- ~
      1    -579.20287749   -5.79e+02      7.77e-02      9.58e-03 o    2.57e-01      3.06e-02 o  ~
  ---------------------------------------------------------------------------------------------

	Writing optimization data to binary file.
	Structure for next step:
	Cartesian Geometry (in Angstrom)
	    C     3.9158593401   0.8381646382   0.4412693356
	    C     2.4885886527   1.3795733233   0.4763388494
	    C     1.6968606202   0.2357420692  -0.1024322523
	    C     2.5000872133  -0.5853540094  -0.8050750660
	    C     3.9274777912  -0.1208227117  -0.7466383475
	    C     0.2524216294   0.1546669035   0.0500993390
	    C    -0.4022092455  -1.0540694224   0.2794837061
	    C    -1.7750163927  -1.1125279184   0.4280711021
	    C    -2.5543202740   0.0358396826   0.3652356785
	    C    -1.9040773260   1.2623593898   0.1567987500
	    C    -0.5248966306   1.3062962869   0.0111419824
	    C     2.1218129794  -1.7381725960  -1.6612852114
	    H    -0.0447834499   2.2587941726  -0.1494709403
	    H    -2.4339256872   2.1871279338   0.1054194114
	    O    -3.9042446654  -0.2155047250   0.5360878616
	    H    -2.2561551921  -2.0603456175   0.6087848278
	    H     0.1785625170  -1.9573186302   0.3714938829
	    H     4.0909073246   0.2626814948   1.3483642618
	    H     4.6727129525   1.6150123010   0.3759948715
	    H     4.6364120296  -0.9405739257  -0.6368052928
	    H     4.1874647356   0.3997263665  -1.6735844359
	    H     1.0477974908  -1.7869162968  -1.8167723936
	    H     2.6166880393  -1.6462233082  -2.6283436226
	    H     2.4495718392  -2.6852938442  -1.2305337818
	    H     2.1527949096   1.6580922155   1.4729129354
	    H     2.3926219896   2.2678553544  -0.1542863481
	    C    -4.9070132158   0.7818956267   0.5186430713
	    H    -5.8475235833   0.2669304611   0.6720442240
	    H    -4.7760848981   1.5181186721   1.3072178392
	    H    -4.9545353368   1.3151177807  -0.4273559271
			--------------------------
			 OPTKING Finished Execution 
			--------------------------

    Structure for next step:
    Molecular point group: c1
    Full point group: C1

    Geometry (in Angstrom), charge = 0, multiplicity = 1:

    C            3.895899511814     0.753910943917     0.446370543589
    C            2.468628818839     1.295319631095     0.481440057530
    C            1.676900783171     0.151488372504    -0.097331046425
    C            2.480127379419    -0.669607709251    -0.799973862972
    C            3.907517962919    -0.205076409781    -0.741537144240
    C            0.232461786720     0.070413206518     0.055200545415
    C           -0.422169090811    -1.138323124181     0.284584913438
    C           -1.794976243411    -1.196781620386     0.433172309975
    C           -2.574280127741    -0.048414014869     0.370336886166
    C           -1.924037177132     1.178105697194     0.161899956826
    C           -0.544856476361     1.222042594444     0.016243188635
    C            2.101853144036    -1.822426300422    -1.656184011649
    H           -0.064743293792     2.174540483854    -0.144369734681
    H           -2.453885540490     2.102874244835     0.110520618071
    O           -3.924204524436    -0.299758423468     0.541189069903
    H           -2.276115044671    -2.144599323182     0.613886036422
    H            0.158602674001    -2.041572335528     0.376595090559
    H            4.070947497000     0.178427798262     1.353465473319
    H            4.652753127145     1.530758609784     0.381096079230
    H            4.616452204131    -1.024827627014    -0.631704089057
    H            4.167504908348     0.315472670509    -1.668483236282
    H            1.027837651190    -1.871170001433    -1.811671194529
    H            2.596728205881    -1.730477012294    -2.623242426676
    H            2.429612005176    -2.769547552336    -1.225432580446
    H            2.132835074339     1.573838524402     1.478014147456
    H            2.372662155305     2.183601665669    -0.149185142478
    C           -4.926973078750     0.697641932180     0.523744279584
    H           -5.867483449944     0.182676764596     0.677145432838
    H           -4.796044760572     1.433864980488     1.312319050548
    H           -4.974495199958     1.230864088239    -0.422254722513


Scratch directory: /local_scratch/pbs.4129855.pbs02/
gradient() will perform analytic gradient computation.

*** tstart() called on skystd36.palmetto.clemson.edu
*** at Sat Dec 11 18:01:13 2021

   => Loading Basis Set <=

    Name: CC-PVTZ
    Role: ORBITAL
    Keyword: BASIS
    atoms 1-12, 27            entry C          line   186 file /home/maxbuskirk/.conda/envs/psifour/share/psi4/basis/cc-pvtz.gbs 
    atoms 13-14, 16-26, 28-30 entry H          line    23 file /home/maxbuskirk/.conda/envs/psifour/share/psi4/basis/cc-pvtz.gbs 
    atoms 15                  entry O          line   262 file /home/maxbuskirk/.conda/envs/psifour/share/psi4/basis/cc-pvtz.gbs 


         ---------------------------------------------------------
                                   SCF
               by Justin Turney, Rob Parrish, Andy Simmonett
                          and Daniel G. A. Smith
                              RHF Reference
                        1 Threads,    500 MiB Core
         ---------------------------------------------------------

  ==> Geometry <==

    Molecular point group: c1
    Full point group: C1

    Geometry (in Angstrom), charge = 0, multiplicity = 1:

       Center              X                  Y                   Z               Mass       
    ------------   -----------------  -----------------  -----------------  -----------------
         C            3.895899511814     0.753910943917     0.446370543589    12.000000000000
         C            2.468628818839     1.295319631095     0.481440057530    12.000000000000
         C            1.676900783171     0.151488372504    -0.097331046425    12.000000000000
         C            2.480127379419    -0.669607709251    -0.799973862972    12.000000000000
         C            3.907517962919    -0.205076409781    -0.741537144240    12.000000000000
         C            0.232461786720     0.070413206518     0.055200545415    12.000000000000
         C           -0.422169090811    -1.138323124181     0.284584913438    12.000000000000
         C           -1.794976243411    -1.196781620386     0.433172309975    12.000000000000
         C           -2.574280127741    -0.048414014869     0.370336886166    12.000000000000
         C           -1.924037177132     1.178105697194     0.161899956826    12.000000000000
         C           -0.544856476361     1.222042594444     0.016243188635    12.000000000000
         C            2.101853144036    -1.822426300422    -1.656184011649    12.000000000000
         H           -0.064743293792     2.174540483854    -0.144369734681     1.007825032230
         H           -2.453885540490     2.102874244835     0.110520618071     1.007825032230
         O           -3.924204524436    -0.299758423468     0.541189069903    15.994914619570
         H           -2.276115044671    -2.144599323182     0.613886036422     1.007825032230
         H            0.158602674001    -2.041572335528     0.376595090559     1.007825032230
         H            4.070947497000     0.178427798262     1.353465473319     1.007825032230
         H            4.652753127145     1.530758609784     0.381096079230     1.007825032230
         H            4.616452204131    -1.024827627014    -0.631704089057     1.007825032230
         H            4.167504908348     0.315472670509    -1.668483236282     1.007825032230
         H            1.027837651190    -1.871170001433    -1.811671194529     1.007825032230
         H            2.596728205881    -1.730477012294    -2.623242426676     1.007825032230
         H            2.429612005176    -2.769547552336    -1.225432580446     1.007825032230
         H            2.132835074339     1.573838524402     1.478014147456     1.007825032230
         H            2.372662155305     2.183601665669    -0.149185142478     1.007825032230
         C           -4.926973078750     0.697641932180     0.523744279584    12.000000000000
         H           -5.867483449944     0.182676764596     0.677145432838     1.007825032230
         H           -4.796044760572     1.433864980488     1.312319050548     1.007825032230
         H           -4.974495199958     1.230864088239    -0.422254722513     1.007825032230

  Running in c1 symmetry.

  Rotational constants: A =      0.06527  B =      0.01075  C =      0.00968 [cm^-1]
  Rotational constants: A =   1956.81260  B =    322.28808  C =    290.30708 [MHz]
  Nuclear repulsion =  847.480906024696424

  Charge       = 0
  Multiplicity = 1
  Electrons    = 102
  Nalpha       = 51
  Nbeta        = 51

  ==> Algorithm <==

  SCF Algorithm Type is DF.
  DIIS enabled.
  MOM disabled.
  Fractional occupation disabled.
  Guess Type is READ.
  Energy threshold   = 1.00e-10
  Density threshold  = 1.00e-10
  Integral threshold = 1.00e-12

  ==> Primary Basis <==

  Basis Set: CC-PVTZ
    Blend: CC-PVTZ
    Number of shells: 236
    Number of basis functions: 644
    Number of Cartesian functions: 730
    Spherical Harmonics?: true
    Max angular momentum: 3

   => Loading Basis Set <=

    Name: (CC-PVTZ AUX)
    Role: JKFIT
    Keyword: DF_BASIS_SCF
    atoms 1-12, 27            entry C          line   125 file /home/maxbuskirk/.conda/envs/psifour/share/psi4/basis/cc-pvtz-jkfit.gbs 
    atoms 13-14, 16-26, 28-30 entry H          line    51 file /home/maxbuskirk/.conda/envs/psifour/share/psi4/basis/cc-pvtz-jkfit.gbs 
    atoms 15                  entry O          line   229 file /home/maxbuskirk/.conda/envs/psifour/share/psi4/basis/cc-pvtz-jkfit.gbs 

   => Loading Basis Set <=

    Name: CC-PVTZ
    Role: ORBITAL
    Keyword: BASIS
    atoms 1-12, 27            entry C          line   186 file /home/maxbuskirk/.conda/envs/psifour/share/psi4/basis/cc-pvtz.gbs 
    atoms 13-14, 16-26, 28-30 entry H          line    23 file /home/maxbuskirk/.conda/envs/psifour/share/psi4/basis/cc-pvtz.gbs 
    atoms 15                  entry O          line   262 file /home/maxbuskirk/.conda/envs/psifour/share/psi4/basis/cc-pvtz.gbs 

  Reading orbitals from file /local_scratch/pbs.4129855.pbs02/pOMe.mol.3680064.180.npy, no projection.

  ==> Integral Setup <==

  ==> DiskDFJK: Density-Fitted J/K Matrices <==

    J tasked:                  Yes
    K tasked:                  Yes
    wK tasked:                  No
    OpenMP threads:              1
    Integrals threads:           1
    Memory [MiB]:              375
    Algorithm:                Disk
    Integral Cache:           NONE
    Schwarz Cutoff:          1E-12
    Fitting Condition:       1E-10

   => Auxiliary Basis Set <=

  Basis Set: (CC-PVTZ AUX)
    Blend: CC-PVTZ-JKFIT
    Number of shells: 510
    Number of basis functions: 1586
    Number of Cartesian functions: 1904
    Spherical Harmonics?: true
    Max angular momentum: 4

  Minimum eigenvalue in the overlap matrix is 2.7872499016E-05.
  Reciprocal condition number of the overlap matrix is 3.0711656196E-06.
    Using symmetric orthogonalization.

  ==> Pre-Iterations <==

  SCF Guess: Orbitals guess was supplied from a previous computation.

   -------------------------------------------------------
    Irrep   Nso     Nmo     Nalpha   Nbeta   Ndocc  Nsocc
   -------------------------------------------------------
     A        644     644      51      51      51       0
   -------------------------------------------------------
    Total     644     644      51      51      51       0
   -------------------------------------------------------

  ==> Iterations <==

                           Total Energy        Delta E     RMS |[F,P]|

   @DF-RHF iter   0:  -576.32575521654564   -5.76326e+02   1.27360e-03 
   @DF-RHF iter   1:  -576.60849202477095   -2.82737e-01   2.82618e-04 DIIS
   @DF-RHF iter   2:  -576.62798078892240   -1.94888e-02   1.36372e-04 DIIS
   @DF-RHF iter   3:  -576.63213336877561   -4.15258e-03   4.30984e-05 DIIS
   @DF-RHF iter   4:  -576.63270484144596   -5.71473e-04   1.78536e-05 DIIS
   @DF-RHF iter   5:  -576.63278552094800   -8.06795e-05   3.61924e-06 DIIS
   @DF-RHF iter   6:  -576.63279269513339   -7.17419e-06   1.46547e-06 DIIS
   @DF-RHF iter   7:  -576.63279382348787   -1.12835e-06   4.93193e-07 DIIS
   @DF-RHF iter   8:  -576.63279397489339   -1.51406e-07   1.91545e-07 DIIS
   @DF-RHF iter   9:  -576.63279399855298   -2.36596e-08   7.49981e-08 DIIS
   @DF-RHF iter  10:  -576.63279400221427   -3.66128e-09   3.11039e-08 DIIS
   @DF-RHF iter  11:  -576.63279400303077   -8.16499e-10   1.42529e-08 DIIS
   @DF-RHF iter  12:  -576.63279400325132   -2.20552e-10   6.65519e-09 DIIS
   @DF-RHF iter  13:  -576.63279400330282   -5.15001e-11   2.41796e-09 DIIS
   @DF-RHF iter  14:  -576.63279400330975   -6.93490e-12   7.81800e-10 DIIS
   @DF-RHF iter  15:  -576.63279400330771    2.04636e-12   3.13748e-10 DIIS
   @DF-RHF iter  16:  -576.63279400331066   -2.95586e-12   1.05062e-10 DIIS
[...]
	   89 D(1,5,4,3)      =     16.323041    -0.000000    -0.012873    16.310168
	   90 D(1,5,4,12)     =   -168.920995    -0.000000    -0.006083  -168.927078
	   91 D(2,1,5,4)      =    -27.423349     0.000000     0.004705   -27.418643
	   92 D(2,1,5,20)     =   -149.506081    -0.000000    -0.001487  -149.507568
	   93 D(2,1,5,21)     =     90.035920    -0.000000     0.000289    90.036209
	   94 D(2,3,4,5)      =      2.094869     0.000000     0.015624     2.110493
	   95 D(2,3,4,12)     =   -172.098577     0.000000     0.006781  -172.091796
	   96 D(2,3,6,7)      =   -147.717774     0.000000     0.017709  -147.700065
	   97 D(2,3,6,11)     =     30.522116     0.000000     0.017664    30.539780
	   98 D(3,2,1,5)      =     28.474185     0.000000     0.003164    28.477349
	   99 D(3,2,1,18)     =    -87.278041     0.000000     0.006714   -87.271327
	  100 D(3,2,1,19)     =    152.366505     0.000000     0.006788   152.373293
	  101 D(3,4,5,20)     =    138.664393    -0.000000    -0.009553   138.654840
	  102 D(3,4,5,21)     =   -102.544245    -0.000000    -0.008493  -102.552738
	  103 D(3,4,12,22)    =     13.292854     0.000000     0.025081    13.317935
	  104 D(3,4,12,23)    =    133.917907     0.000000     0.027006   133.944913
	  105 D(3,4,12,24)    =   -108.256617     0.000000     0.032026  -108.224591
	  106 D(3,6,7,8)      =    179.946746     0.000000     0.004016   179.950763
	  107 D(3,6,7,17)     =      2.131524     0.000000    -0.001173     2.130352
	  108 D(3,6,11,10)    =    179.749591     0.000000    -0.001204   179.748387
	  109 D(3,6,11,13)    =      0.566145    -0.000000    -0.003307     0.562838
	  110 D(4,3,2,25)     =   -141.583932    -0.000000    -0.011763  -141.595695
	  111 D(4,3,2,26)     =     98.684104    -0.000000    -0.013330    98.670774
	  112 D(4,3,6,7)      =     36.506954     0.000000     0.031682    36.538635
	  113 D(4,3,6,11)     =   -145.253157     0.000000     0.031637  -145.221520
	  114 D(4,5,1,18)     =     88.238581     0.000000     0.000593    88.239174
	  115 D(4,5,1,19)     =   -151.288403     0.000000     0.000445  -151.287958
	  116 D(5,1,2,25)     =    150.343394    -0.000000     0.001835   150.345229
	  117 D(5,1,2,26)     =    -89.202096    -0.000000     0.001452   -89.200644
	  118 D(5,4,3,6)      =    178.253943     0.000000     0.002999   178.256942
	  119 D(5,4,12,22)    =   -160.425080    -0.000000     0.016213  -160.408867
	  120 D(5,4,12,23)    =    -39.800027     0.000000     0.018139   -39.781889
	  121 D(5,4,12,24)    =     78.025449     0.000000     0.023158    78.048607
	  122 D(6,3,2,25)     =     41.975998    -0.000000     0.000209    41.976206
	  123 D(6,3,2,26)     =    -77.755967    -0.000000    -0.001358   -77.757325
	  124 D(6,3,4,12)     =      4.060496     0.000000    -0.005843     4.054653
	  125 D(6,7,8,9)      =     -0.297110    -0.000000    -0.002140    -0.299250
	  126 D(6,7,8,16)     =   -179.383080    -0.000000    -0.001751  -179.384830
	  127 D(6,11,10,9)    =      0.828783    -0.000000    -0.003259     0.825524
	  128 D(6,11,10,14)   =   -179.379507    -0.000000    -0.001224  -179.380731
	  129 D(7,6,11,10)    =     -1.925130    -0.000000    -0.001335    -1.926465
	  130 D(7,6,11,13)    =    178.891424    -0.000000    -0.003438   178.887986
	  131 D(7,8,9,10)     =     -0.858336    -0.000000    -0.002532    -0.860869
	  132 D(7,8,9,15)     =    179.827511     0.000000     0.008295   179.835805
	  133 D(8,7,6,11)     =      1.654153     0.000000     0.004041     1.658194
	  134 D(8,9,10,11)    =      0.598421     0.000000     0.005155     0.603576
	  135 D(8,9,10,14)    =   -179.189166     0.000000     0.003075  -179.186091
	  136 D(8,9,15,27)    =    179.419963    -0.000000    -0.003997   179.415966
	  137 D(9,8,7,17)     =    177.522900    -0.000000     0.002980   177.525880
	  138 D(9,10,11,13)   =   -179.982083    -0.000000    -0.001175  -179.983258
	  139 D(9,15,27,28)   =    179.891591    -0.000000     0.007003   179.898594
	  140 D(9,15,27,29)   =    -61.228658     0.000000     0.008729   -61.219928
	  141 D(9,15,27,30)   =     61.008155    -0.000000     0.007252    61.015407
	  142 D(10,9,8,16)    =    178.252104    -0.000000    -0.002916   178.249187
	  143 D(10,9,15,27)   =      0.147418     0.000000     0.007487     0.154905
	  144 D(11,6,7,17)    =   -176.161069     0.000000    -0.001148  -176.162217
	  145 D(11,10,9,15)   =    179.848960    -0.000000    -0.006681   179.842278
	  146 D(12,4,5,20)    =    -46.579643    -0.000000    -0.002763   -46.582406
	  147 D(12,4,5,21)    =     72.211719    -0.000000    -0.001703    72.210016
	  148 D(13,11,10,14)  =     -0.190372    -0.000000     0.000860    -0.189512
	  149 D(14,10,9,15)   =      0.061373    -0.000000    -0.008761     0.052612
	  150 D(15,9,8,16)    =     -1.062049     0.000000     0.007911    -1.054138
	  151 D(16,8,7,17)    =     -1.563069    -0.000000     0.003369    -1.559700
	  152 D(18,1,2,25)    =     34.591167    -0.000000     0.005385    34.596552
	  153 D(18,1,2,26)    =    155.045677    -0.000000     0.005002   155.050679
	  154 D(18,1,5,20)    =    -33.844151    -0.000000    -0.005600   -33.849751
	  155 D(18,1,5,21)    =   -154.302150    -0.000000    -0.003823  -154.305973
	  156 D(19,1,2,25)    =    -85.764286    -0.000000     0.005459   -85.758828
	  157 D(19,1,2,26)    =     34.690223    -0.000000     0.005076    34.695299
	  158 D(19,1,5,20)    =     86.628865    -0.000000    -0.005747    86.623118
	  159 D(19,1,5,21)    =    -33.829134    -0.000000    -0.003971   -33.833105
	  160 R(7,12)         =      3.196883    -0.000053    -0.000081     3.196801
	 ---------------------------------------------------------------------------
	Successfully symmetrized geometry.

  ==> Convergence Check <==

  Measures of convergence in internal coordinates in au.
  Criteria marked as inactive (o), active & met (*), and active & unmet ( ).
  ---------------------------------------------------------------------------------------------
   Step     Total Energy     Delta E     MAX Force     RMS Force      MAX Disp      RMS Disp   
  ---------------------------------------------------------------------------------------------
    Convergence Criteria    1.00e-06 *    3.00e-04 *             o    1.20e-03 *             o
  ---------------------------------------------------------------------------------------------
     11    -579.21608017   -2.18e-07 *    4.01e-05 *    6.61e-06 o    5.59e-04 *    1.31e-04 o  ~
  ---------------------------------------------------------------------------------------------


  **** Optimization is complete! (in 11 steps) ****

  ==> Optimization Summary <==

  Measures of convergence in internal coordinates in au.
  --------------------------------------------------------------------------------------------------------------- ~
   Step         Total Energy             Delta E       MAX Force       RMS Force        MAX Disp        RMS Disp  ~
  --------------------------------------------------------------------------------------------------------------- ~
      1    -579.202877488481   -579.202877488481      0.07769644      0.00958062      0.25699631      0.03055901  ~
      2    -579.209683853951     -0.006806365470      0.03992055      0.00482520      0.08098479      0.00984277  ~
      3    -579.214842558082     -0.005158704132      0.01980659      0.00218409      0.05011823      0.00944749  ~
      4    -579.215898624546     -0.001056066464      0.00686267      0.00078420      0.02762701      0.00786933  ~
      5    -579.216012014606     -0.000113390060      0.00438355      0.00051451      0.01084931      0.00247049  ~
      6    -579.216064029170     -0.000052014563      0.00048070      0.00006263      0.00930368      0.00247050  ~
      7    -579.216070808076     -0.000006778907      0.00020985      0.00003156      0.00973269      0.00247056  ~
      8    -579.216075594314     -0.000004786238      0.00016510      0.00002431      0.01103680      0.00246987  ~
      9    -579.216078531724     -0.000002937410      0.00014930      0.00002527      0.01285239      0.00247057  ~
     10    -579.216079954935     -0.000001423211      0.00007765      0.00001473      0.00389631      0.00083372  ~
     11    -579.216080173003     -0.000000218069      0.00004010      0.00000661      0.00055895      0.00013059  ~
  --------------------------------------------------------------------------------------------------------------- ~

	Writing optimization data to binary file.
	Final energy is   -579.2160801730032
	Final (previous) structure:
	Cartesian Geometry (in Angstrom)
	    C     3.8096047578   1.0497310030   0.3716432312
	    C     2.3390445495   1.4579853675   0.4396572236
	    C     1.6329710482   0.2551381035  -0.1301062754
	    C     2.4877004299  -0.4944537330  -0.8517032330
	    C     3.8714909525   0.0845253476  -0.8104155268
	    C     0.2071025394   0.0542044618   0.0512793086
	    C    -0.3597096460  -1.2202022079   0.1573810837
	    C    -1.7179360857  -1.3914353317   0.3306909824
	    C    -2.5619130360  -0.2875451057   0.4106769639
	    C    -2.0196318146   0.9902347101   0.3321071287
	    C    -0.6508542343   1.1459132106   0.1630904617
	    C     2.1935592996  -1.6676531584  -1.7136251195
	    H    -0.2475223035   2.1434459364   0.1045003879
	    H    -2.6415745522   1.8629186756   0.4033320811
	    O    -3.8813183624  -0.5575569410   0.5777060281
	    H    -2.1485152445  -2.3739787579   0.4216953911
	    H     0.2797404715  -2.0857837042   0.1383974166
	    H     4.0621671210   0.5080525406   1.2791136081
	    H     4.4883062984   1.8909306367   0.2801882221
	    H     4.6418626711  -0.6755107430  -0.7010784343
	    H     4.0755656657   0.6096325578  -1.7466232106
	    H     1.1332531851  -1.7728963292  -1.9160510712
	    H     2.7170145965  -1.5655851719  -2.6624314102
	    H     2.5473736587  -2.5929048112  -1.2599337412
	    H     2.0119177234   1.7004472704   1.4468609344
	    H     2.1480693290   2.3349045116  -0.1819047080
	    C    -4.7409652507   0.5580716999   0.6722702280
	    H    -5.7380871795   0.1586377640   0.7986761872
	    H    -4.4905947312   1.1797745404   1.5293662840
	    H    -4.7068174145   1.1623773477  -0.2318441565
	Saving final (previous) structure.
	Cleaning optimization helper files.
			--------------------------
			 OPTKING Finished Execution 
			--------------------------

    Final optimized geometry and variables:
    Molecular point group: c1
    Full point group: C1

    Geometry (in Angstrom), charge = 0, multiplicity = 1:

    C            3.809604772730     1.049731007143     0.371643232654
    C            2.339044558690     1.457985373183     0.439657225353
    C            1.632971054609     0.255138104503    -0.130106275948
    C            2.487700439667    -0.494453734949    -0.851703236330
    C            3.871490967708     0.084525347923    -0.810415529944
    C            0.207102540187     0.054204461964     0.051279308777
    C           -0.359709647452    -1.220202212689     0.157381084310
    C           -1.717936092410    -1.391435337125     0.330690983732
    C           -2.561913046041    -0.287545106867     0.410676965543
    C           -2.019631822554     0.990234713973     0.332107129967
    C           -0.650854236841     1.145913215109     0.163090462350
    C            2.193559308248    -1.667653164973    -1.713625126284
    H           -0.247522304510     2.143445944821     0.104500388310
    H           -2.641574562575     1.862918682964     0.403332082715
    O           -3.881318377662    -0.557556943215     0.577706030399
    H           -2.148515252954    -2.373978767193     0.421695392776
    H            0.279740472578    -2.085783712416     0.138397417172
    H            4.062167136964     0.508052542637     1.279113613082
    H            4.488306316027     1.890930644100     0.280188223242
    H            4.641862689372    -0.675510745610    -0.701078437091
    H            4.075565681760     0.609632560222    -1.746623217487
    H            1.133253189578    -1.772896336121    -1.916051078700
    H            2.717014607158    -1.565585178071    -2.662431420713
    H            2.547373668697    -2.592904821420    -1.259933746201
    H            2.011917731268     1.700447277127     1.446860940056
    H            2.148069337463     2.334904520774    -0.181904708733
    C           -4.740965269347     0.558071702071     0.672270230597
    H           -5.738087202058     0.158637764590     0.798676190315
    H           -4.490594748856     1.179774545065     1.529366289967
    H           -4.706817433012     1.162377352225    -0.231844157410

	Removing binary optimization data file.
	Cleaning optimization helper files.


Properties will be evaluated at   0.000000,   0.000000,   0.000000 [a0]
OEProp: No title given, name of density matrix used for the following properties is 'DF-MP2 relaxed density'
  Mulliken Charges: (a.u.)
   Center  Symbol    Alpha    Beta     Spin     Total
       1     C     3.12661  3.12661  0.00000 -0.25323
       2     C     3.13646  3.13646  0.00000 -0.27292
       3     C     3.05269  3.05269  0.00000 -0.10537
       4     C     2.99096  2.99096  0.00000  0.01808
       5     C     3.12904  3.12904  0.00000 -0.25809
       6     C     2.90571  2.90571  0.00000  0.18859
       7     C     3.08485  3.08485  0.00000 -0.16971
       8     C     3.10059  3.10059  0.00000 -0.20118
       9     C     2.89434  2.89434  0.00000  0.21132
      10     C     3.11971  3.11971  0.00000 -0.23943
      11     C     3.10186  3.10186  0.00000 -0.20373
      12     C     3.20558  3.20558  0.00000 -0.41116
      13     H     0.42621  0.42621  0.00000  0.14758
      14     H     0.42455  0.42455  0.00000  0.15090
      15     O     4.10763  4.10763  0.00000 -0.21526
      16     H     0.42364  0.42364  0.00000  0.15273
      17     H     0.41910  0.41910  0.00000  0.16181
      18     H     0.44032  0.44032  0.00000  0.11935
      19     H     0.43574  0.43574  0.00000  0.12852
      20     H     0.43712  0.43712  0.00000  0.12575
      21     H     0.44028  0.44028  0.00000  0.11943
      22     H     0.43102  0.43102  0.00000  0.13796
      23     H     0.43567  0.43567  0.00000  0.12865
      24     H     0.43295  0.43295  0.00000  0.13410
      25     H     0.43340  0.43340  0.00000  0.13320
      26     H     0.43902  0.43902  0.00000  0.12197
      27     C     3.09575  3.09575  0.00000 -0.19150
      28     H     0.42827  0.42827  0.00000  0.14346
      29     H     0.45048  0.45048  0.00000  0.09904
      30     H     0.45043  0.45043  0.00000  0.09914

   Total alpha = 51.00000, Total beta = 51.00000, Total charge = -0.00000

    Molecular point group: c1
    Full point group: C1

    Geometry (in Angstrom), charge = 0, multiplicity = 1:

       Center              X                  Y                   Z               Mass       
    ------------   -----------------  -----------------  -----------------  -----------------
         C            3.809604772730     1.049731007143     0.371643232654    12.000000000000
         C            2.339044558690     1.457985373183     0.439657225353    12.000000000000
         C            1.632971054609     0.255138104503    -0.130106275948    12.000000000000
         C            2.487700439667    -0.494453734949    -0.851703236330    12.000000000000
         C            3.871490967708     0.084525347923    -0.810415529944    12.000000000000
         C            0.207102540187     0.054204461964     0.051279308777    12.000000000000
         C           -0.359709647452    -1.220202212689     0.157381084310    12.000000000000
         C           -1.717936092410    -1.391435337125     0.330690983732    12.000000000000
         C           -2.561913046041    -0.287545106867     0.410676965543    12.000000000000
         C           -2.019631822554     0.990234713973     0.332107129967    12.000000000000
         C           -0.650854236841     1.145913215109     0.163090462350    12.000000000000
         C            2.193559308248    -1.667653164973    -1.713625126284    12.000000000000
         H           -0.247522304510     2.143445944821     0.104500388310     1.007825032230
         H           -2.641574562575     1.862918682964     0.403332082715     1.007825032230
         O           -3.881318377662    -0.557556943215     0.577706030399    15.994914619570
         H           -2.148515252954    -2.373978767193     0.421695392776     1.007825032230
         H            0.279740472578    -2.085783712416     0.138397417172     1.007825032230
         H            4.062167136964     0.508052542637     1.279113613082     1.007825032230
         H            4.488306316027     1.890930644100     0.280188223242     1.007825032230
         H            4.641862689372    -0.675510745610    -0.701078437091     1.007825032230
         H            4.075565681760     0.609632560222    -1.746623217487     1.007825032230
         H            1.133253189578    -1.772896336121    -1.916051078700     1.007825032230
         H            2.717014607158    -1.565585178071    -2.662431420713     1.007825032230
         H            2.547373668697    -2.592904821420    -1.259933746201     1.007825032230
         H            2.011917731268     1.700447277127     1.446860940056     1.007825032230
         H            2.148069337463     2.334904520774    -0.181904708733     1.007825032230
         C           -4.740965269347     0.558071702071     0.672270230597    12.000000000000
         H           -5.738087202058     0.158637764590     0.798676190315     1.007825032230
         H           -4.490594748856     1.179774545065     1.529366289967     1.007825032230
         H           -4.706817433012     1.162377352225    -0.231844157410     1.007825032230



  Variable Map:
  ----------------------------------------------------------------------------
  "CURRENT CORRELATION ENERGY"           =>      -2.578966197888
  "CURRENT DIPOLE X"                     =>      -0.293986169906
  "CURRENT DIPOLE Y"                     =>       1.145650417821
  "CURRENT DIPOLE Z"                     =>      -0.136310418744
  "CURRENT ENERGY"                       =>    -579.216080173003
  "CURRENT REFERENCE ENERGY"             =>    -576.637113975116
  "CUSTOM SCS-MP2 CORRELATION ENERGY"    =>      -2.557552907127
  "CUSTOM SCS-MP2 TOTAL ENERGY"          =>    -579.194666882243
  "HF TOTAL ENERGY"                      =>    -576.637113975116
  "MP2 CORRELATION ENERGY"               =>      -2.578966197888
  "MP2 DOUBLES ENERGY"                   =>      -2.578966197888
  "MP2 OPPOSITE-SPIN CORRELATION ENERGY" =>      -1.959112509036
  "MP2 SAME-SPIN CORRELATION ENERGY"     =>      -0.619853688851
  "MP2 SINGLES ENERGY"                   =>      -0.000000000000
  "MP2 TOTAL ENERGY"                     =>    -579.216080173003
  "NUCLEAR REPULSION ENERGY"             =>     852.448273994949
  "ONE-ELECTRON ENERGY"                  =>   -2474.183760974652
  "OPTIMIZATION ITERATIONS"              =>      11.000000000000
  "PCM POLARIZATION ENERGY"              =>       0.000000000000
  "PE ENERGY"                            =>       0.000000000000
  "SCF DIPOLE X"                         =>      -0.293986169906
  "SCF DIPOLE Y"                         =>       1.145650417821
  "SCF DIPOLE Z"                         =>      -0.136310418744
  "SCF ITERATION ENERGY"                 =>    -576.637113975116
  "SCF ITERATIONS"                       =>      11.000000000000
  "SCF TOTAL ENERGY"                     =>    -576.637113975116
  "SCS-MP2 CORRELATION ENERGY"           =>      -2.557552907127
  "SCS-MP2 TOTAL ENERGY"                 =>    -579.194666882243
  "TWO-ELECTRON ENERGY"                  =>    1045.098373004587



    Psi4 stopped on: Saturday, 11 December 2021 08:08PM
    Psi4 wall time for execution: 2:20:48.19

*** Psi4 exiting successfully. Buy a developer a beer!
