
    -----------------------------------------------------------------------
          Psi4: An Open-Source Ab Initio Electronic Structure Package
                               Psi4 1.4 release

                         Git: Rev {HEAD} 9485035 


    D. G. A. Smith, L. A. Burns, A. C. Simmonett, R. M. Parrish,
    M. C. Schieber, R. Galvelis, P. Kraus, H. Kruse, R. Di Remigio,
    A. Alenaizan, A. M. James, S. Lehtola, J. P. Misiewicz, M. Scheurer,
    R. A. Shaw, J. B. Schriber, Y. Xie, Z. L. Glick, D. A. Sirianni,
    J. S. O'Brien, J. M. Waldrop, A. Kumar, E. G. Hohenstein,
    B. P. Pritchard, B. R. Brooks, H. F. Schaefer III, A. Yu. Sokolov,
    K. Patkowski, A. E. DePrince III, U. Bozkaya, R. A. King,
    F. A. Evangelista, J. M. Turney, T. D. Crawford, C. D. Sherrill,
    J. Chem. Phys. 152(18) 184108 (2020). https://doi.org/10.1063/5.0006002

                            Additional Code Authors
    E. T. Seidl, C. L. Janssen, E. F. Valeev, M. L. Leininger,
    J. F. Gonthier, R. M. Richard, H. R. McAlexander, M. Saitow, X. Wang,
    P. Verma, and M. H. Lechner

             Previous Authors, Complete List of Code Contributors,
                       and Citations for Specific Modules
    https://github.com/psi4/psi4/blob/master/codemeta.json
    https://github.com/psi4/psi4/graphs/contributors
    http://psicode.org/psi4manual/master/introduction.html#citing-psifour

    -----------------------------------------------------------------------


    Psi4 started on: Saturday, 09 October 2021 03:53AM

    Process ID: 1217124
    Host:       skystd23.palmetto.clemson.edu
    PSIDATADIR: /home/maxbuskirk/.conda/envs/psifour/share/psi4
    Memory:     500.0 MiB
    Threads:    1
    
  ==> Input File <==

--------------------------------------------------------------------------
memory 32 GB

molecule mol {
1 1
    C            2.940729029582    -0.379409089862    -1.695460555315
    C            1.306346396785     1.037487004860    -0.787097816623
    C            2.129690625959     1.891254331322     0.047416379718
    C            3.275565283143     0.838087475447     0.470999750447
    C            3.954433852296     0.281334491811    -0.772246344920
    H            4.708811189259    -0.465375660880    -0.469358718295
    H            4.489814122413     1.084709919576    -1.306366160151
    H            2.827060621243     0.041411311681     1.085578774066
    H            3.953784402442     1.417870288066     1.116959404125
    H            1.622287334698     2.247985309516     0.952331460703
    H            2.634260038865     2.694940997202    -0.508160621028
    C            0.108646912984     0.385120581970    -0.234886831863
    C            0.121948195924    -0.845970366045     0.452501273746
    C           -1.078690664069    -1.380616215345     0.939747895239
    C           -2.286537703094    -0.691303364736     0.743111087908
    C           -2.302733546077     0.535734644026     0.057332791353
    C           -1.108332868688     1.078191933176    -0.432636553357
    H           -1.130281269030     2.034599789926    -0.964567440166
    H           -3.246307031747     1.066203252700    -0.092162923044
    CL          -3.760940356643    -1.353766413414     1.349332035430
    H           -1.076086740127    -2.333833331374     1.473847530993
    H            1.052104358736    -1.395645337307     0.614975137100
    C            1.796182378929     0.681448397799    -2.104787207565
    H            1.051648936676     0.176712268889    -2.732847492244
    H            2.306769475520     1.506850745830    -2.621712281795
    H            2.469872554531    -1.257787967625    -1.226081372511
    H            3.369173222568    -0.703155081736    -2.657557322757
}

set scf_type df
set basis cc-pVDZ
set reference rhf


mol.update_geometry()
mol.symmetrize(1e-3)

e, wfn = frequencies('mp2', return_wfn=True)
oeprop(wfn, "MULLIKEN_CHARGES")
mol.print_out()
print_variables()
--------------------------------------------------------------------------

  Memory set to  29.802 GiB by Python driver.

Scratch directory: /tmp/
gradient() will perform analytic gradient computation.

*** tstart() called on skystd23.palmetto.clemson.edu
*** at Sat Oct  9 03:53:07 2021

   => Loading Basis Set <=

    Name: CC-PVDZ
    Role: ORBITAL
    Keyword: BASIS
    atoms 1-5, 12-17, 23            entry C          line   138 file /home/maxbuskirk/.conda/envs/psifour/share/psi4/basis/cc-pvdz.gbs 
    atoms 6-11, 18-19, 21-22, 24-27 entry H          line    22 file /home/maxbuskirk/.conda/envs/psifour/share/psi4/basis/cc-pvdz.gbs 
    atoms 20                        entry CL         line   658 file /home/maxbuskirk/.conda/envs/psifour/share/psi4/basis/cc-pvdz.gbs 


         ---------------------------------------------------------
                                   SCF
               by Justin Turney, Rob Parrish, Andy Simmonett
                          and Daniel G. A. Smith
                              RHF Reference
                        1 Threads,  30517 MiB Core
         ---------------------------------------------------------

  ==> Geometry <==

    Molecular point group: c1
    Full point group: C1

    Geometry (in Angstrom), charge = 1, multiplicity = 1:

       Center              X                  Y                   Z               Mass       
    ------------   -----------------  -----------------  -----------------  -----------------
         C            2.940729029582    -0.379409089862    -1.695460555315    12.000000000000
         C            1.306346396785     1.037487004860    -0.787097816623    12.000000000000
         C            2.129690625959     1.891254331322     0.047416379718    12.000000000000
         C            3.275565283143     0.838087475447     0.470999750447    12.000000000000
         C            3.954433852296     0.281334491811    -0.772246344920    12.000000000000
         H            4.708811189259    -0.465375660880    -0.469358718295     1.007825032230
         H            4.489814122413     1.084709919576    -1.306366160151     1.007825032230
         H            2.827060621243     0.041411311681     1.085578774066     1.007825032230
         H            3.953784402442     1.417870288066     1.116959404125     1.007825032230
         H            1.622287334698     2.247985309516     0.952331460703     1.007825032230
         H            2.634260038865     2.694940997202    -0.508160621028     1.007825032230
         C            0.108646912984     0.385120581970    -0.234886831863    12.000000000000
         C            0.121948195924    -0.845970366045     0.452501273746    12.000000000000
         C           -1.078690664069    -1.380616215345     0.939747895239    12.000000000000
         C           -2.286537703094    -0.691303364736     0.743111087908    12.000000000000
         C           -2.302733546077     0.535734644026     0.057332791353    12.000000000000
         C           -1.108332868688     1.078191933176    -0.432636553357    12.000000000000
         H           -1.130281269030     2.034599789926    -0.964567440166     1.007825032230
         H           -3.246307031747     1.066203252700    -0.092162923044     1.007825032230
         CL          -3.760940356643    -1.353766413414     1.349332035430    34.968852682000
         H           -1.076086740127    -2.333833331374     1.473847530993     1.007825032230
         H            1.052104358736    -1.395645337307     0.614975137100     1.007825032230
         C            1.796182378929     0.681448397799    -2.104787207565    12.000000000000
         H            1.051648936676     0.176712268889    -2.732847492244     1.007825032230
         H            2.306769475520     1.506850745830    -2.621712281795     1.007825032230
         H            2.469872554531    -1.257787967625    -1.226081372511     1.007825032230
         H            3.369173222568    -0.703155081736    -2.657557322757     1.007825032230

  Running in c1 symmetry.

  Rotational constants: A =      0.06663  B =      0.01057  C =      0.01023 [cm^-1]
  Rotational constants: A =   1997.55320  B =    316.85798  C =    306.80964 [MHz]
  Nuclear repulsion =  840.100817597382388

  Charge       = 1
  Multiplicity = 1
  Electrons    = 102
  Nalpha       = 51
  Nbeta        = 51

  ==> Algorithm <==

  SCF Algorithm Type is DF.
  DIIS enabled.
  MOM disabled.
  Fractional occupation disabled.
  Guess Type is SAD.
  Energy threshold   = 1.00e-10
  Density threshold  = 1.00e-10
  Integral threshold = 1.00e-12

  ==> Primary Basis <==

  Basis Set: CC-PVDZ
    Blend: CC-PVDZ
    Number of shells: 122
    Number of basis functions: 256
    Number of Cartesian functions: 269
    Spherical Harmonics?: true
    Max angular momentum: 2

   => Loading Basis Set <=

    Name: (CC-PVDZ AUX)
    Role: JKFIT
    Keyword: DF_BASIS_SCF
    atoms 1-5, 12-17, 23            entry C          line   121 file /home/maxbuskirk/.conda/envs/psifour/share/psi4/basis/cc-pvdz-jkfit.gbs 
    atoms 6-11, 18-19, 21-22, 24-27 entry H          line    51 file /home/maxbuskirk/.conda/envs/psifour/share/psi4/basis/cc-pvdz-jkfit.gbs 
    atoms 20                        entry CL         line   667 file /home/maxbuskirk/.conda/envs/psifour/share/psi4/basis/cc-pvdz-jkfit.gbs 

  ==> Integral Setup <==

  DFHelper Memory: AOs need 0.577 GiB; user supplied 22.352 GiB. Using in-core AOs.

  ==> MemDFJK: Density-Fitted J/K Matrices <==

    J tasked:                   Yes
    K tasked:                   Yes
    wK tasked:                   No
    OpenMP threads:               1
    Memory [MiB]:             22888
    Algorithm:                 Core
    Schwarz Cutoff:           1E-12
    Mask sparsity (%):      10.9833
    Fitting Condition:        1E-10

   => Auxiliary Basis Set <=

  Basis Set: (CC-PVDZ AUX)
    Blend: CC-PVDZ-JKFIT
    Number of shells: 450
    Number of basis functions: 1274
    Number of Cartesian functions: 1452
    Spherical Harmonics?: true
    Max angular momentum: 3

  Minimum eigenvalue in the overlap matrix is 3.1793259945E-04.
  Reciprocal condition number of the overlap matrix is 4.5622666181E-05.
    Using symmetric orthogonalization.

  ==> Pre-Iterations <==

  SCF Guess: Superposition of Atomic Densities via on-the-fly atomic UHF (no occupation information).

   -------------------------
    Irrep   Nso     Nmo    
   -------------------------
     A        256     256 
   -------------------------
    Total     256     256
   -------------------------

  ==> Iterations <==

                           Total Energy        Delta E     RMS |[F,P]|

   @DF-RHF iter SAD:  -921.72262965282368   -9.21723e+02   0.00000e+00 
   @DF-RHF iter   1:  -921.61631555712404    1.06314e-01   2.09691e-03 DIIS
   @DF-RHF iter   2:  -921.80536974566371   -1.89054e-01   8.42847e-04 DIIS
   @DF-RHF iter   3:  -921.83248232446977   -2.71126e-02   2.88406e-04 DIIS
   @DF-RHF iter   4:  -921.83690178059521   -4.41946e-03   6.13350e-05 DIIS
   @DF-RHF iter   5:  -921.83715553851948   -2.53758e-04   2.73242e-05 DIIS
   @DF-RHF iter   6:  -921.83721160424739   -5.60657e-05   8.95188e-06 DIIS
   @DF-RHF iter   7:  -921.83721942107491   -7.81683e-06   3.89202e-06 DIIS
   @DF-RHF iter   8:  -921.83722070858823   -1.28751e-06   1.27601e-06 DIIS
   @DF-RHF iter   9:  -921.83722085523027   -1.46642e-07   4.43257e-07 DIIS
   @DF-RHF iter  10:  -921.83722087583499   -2.06047e-08   1.99581e-07 DIIS
   @DF-RHF iter  11:  -921.83722088202103   -6.18604e-09   1.02105e-07 DIIS
   @DF-RHF iter  12:  -921.83722088361458   -1.59355e-09   4.15155e-08 DIIS
   @DF-RHF iter  13:  -921.83722088386480   -2.50225e-10   1.71672e-08 DIIS
   @DF-RHF iter  14:  -921.83722088391323   -4.84306e-11   6.02421e-09 DIIS
   @DF-RHF iter  15:  -921.83722088391812   -4.88853e-12   2.49726e-09 DIIS
   @DF-RHF iter  16:  -921.83722088391914   -1.02318e-12   1.02951e-09 DIIS
   @DF-RHF iter  17:  -921.83722088392119   -2.04636e-12   3.73559e-10 DIIS
   @DF-RHF iter  18:  -921.83722088391949    1.70530e-12   1.45316e-10 DIIS
   @DF-RHF iter  19:  -921.83722088391983   -3.41061e-13   5.48822e-11 DIIS
  Energy and wave function converged.


  ==> Post-Iterations <==

    Orbital Energies [Eh]
    ---------------------

    Doubly Occupied:                                                      

       1A   -104.947340     2A    -11.539907     3A    -11.442324  
       4A    -11.428082     5A    -11.428044     6A    -11.425267  
       7A    -11.423194     8A    -11.423130     9A    -11.413381  
      10A    -11.411592    11A    -11.395894    12A    -11.395823  
      13A    -11.395278    14A    -10.674272    15A     -8.141918  
      16A     -8.138217    17A     -8.138171    18A     -1.363618  
      19A     -1.317122    20A     -1.259193    21A     -1.205007  
      22A     -1.201369    23A     -1.172877    24A     -1.134362  
      25A     -1.031291    26A     -1.009460    27A     -0.990558  
      28A     -0.963177    29A     -0.919252    30A     -0.863343  
      31A     -0.819725    32A     -0.803801    33A     -0.796246  
      34A     -0.794658    35A     -0.763915    36A     -0.756558  
      37A     -0.745545    38A     -0.741715    39A     -0.711699  
      40A     -0.701006    41A     -0.671391    42A     -0.661265  
      43A     -0.660865    44A     -0.656523    45A     -0.640072  
      46A     -0.636795    47A     -0.630702    48A     -0.591797  
      49A     -0.564895    50A     -0.490593    51A     -0.467626  

    Virtual:                                                              

      52A     -0.130112    53A     -0.029859    54A     -0.025735  
      55A      0.027414    56A      0.038596    57A      0.058942  
      58A      0.067684    59A      0.069939    60A      0.090731  
      61A      0.102957    62A      0.107561    63A      0.108801  
      64A      0.120879    65A      0.127571    66A      0.133271  
      67A      0.140359    68A      0.144188    69A      0.169487  
      70A      0.173122    71A      0.202840    72A      0.204004  
      73A      0.206437    74A      0.240519    75A      0.267342  
      76A      0.272687    77A      0.289900    78A      0.291306  
      79A      0.320297    80A      0.334039    81A      0.344768  
      82A      0.407765    83A      0.434697    84A      0.444504  
      85A      0.457612    86A      0.468364    87A      0.474307  
      88A      0.491142    89A      0.491759    90A      0.503165  
      91A      0.530011    92A      0.542329    93A      0.544479  
      94A      0.552700    95A      0.559249    96A      0.584016  
      97A      0.594312    98A      0.598492    99A      0.599979  
     100A      0.604136   101A      0.629753   102A      0.639463  
     103A      0.641799   104A      0.659997   105A      0.668779  
     106A      0.672188   107A      0.675425   108A      0.675659  
     109A      0.698349   110A      0.698449   111A      0.709101  
     112A      0.713549   113A      0.717562   114A      0.720891  
     115A      0.723541   116A      0.734183   117A      0.737358  
     118A      0.754808   119A      0.763799   120A      0.766586  
     121A      0.774097   122A      0.777665   123A      0.783457  
     124A      0.785553   125A      0.788176   126A      0.810157  
     127A      0.813807   128A      0.842282   129A      0.852068  
     130A      0.874250   131A      0.881639   132A      0.899401  
     133A      0.924109   134A      0.942150   135A      0.955500  
     136A      0.975851   137A      0.993435   138A      1.008550  
     139A      1.018463   140A      1.041551   141A      1.049532  
     142A      1.059887   143A      1.079430   144A      1.083256  
     145A      1.092551   146A      1.138020   147A      1.144547  
     148A      1.158170   149A      1.185266   150A      1.205892  
     151A      1.220484   152A      1.220794   153A      1.269209  
     154A      1.279306   155A      1.279887   156A      1.295022  
     157A      1.320826   158A      1.323230   159A      1.349621  
     160A      1.351194   161A      1.391581   162A      1.420940  
     163A      1.472879   164A      1.478821   165A      1.517700  
     166A      1.519551   167A      1.569706   168A      1.574578  
     169A      1.588677   170A      1.600096   171A      1.602000  
     172A      1.628337   173A      1.659395   174A      1.659460  
     175A      1.664231   176A      1.676236   177A      1.687448  
     178A      1.711313   179A      1.714292   180A      1.721869  
     181A      1.722596   182A      1.735815   183A      1.742098  
     184A      1.752572   185A      1.757606   186A      1.763703  
     187A      1.772258   188A      1.788278   189A      1.794133  
     190A      1.802938   191A      1.810310   192A      1.818248  
     193A      1.826835   194A      1.834647   195A      1.836459  
     196A      1.844266   197A      1.861973   198A      1.866555  
     199A      1.874065   200A      1.884923   201A      1.909961  
     202A      1.914859   203A      1.928533   204A      1.932606  
     205A      1.965059   206A      1.980057   207A      1.985478  
     208A      1.993974   209A      2.000556   210A      2.029392  
     211A      2.045327   212A      2.054731   213A      2.092077  
     214A      2.097265   215A      2.108707   216A      2.111043  
     217A      2.144300   218A      2.162944   219A      2.175755  
     220A      2.185920   221A      2.205460   222A      2.229138  
     223A      2.237532   224A      2.278630   225A      2.289461  
     226A      2.311359   227A      2.334452   228A      2.344710  
     229A      2.363003   230A      2.364783   231A      2.385149  
     232A      2.434921   233A      2.478275   234A      2.486373  
     235A      2.518321   236A      2.549554   237A      2.585593  
     238A      2.593276   239A      2.602504   240A      2.616831  
     241A      2.623516   242A      2.654225   243A      2.689170  
     244A      2.695814   245A      2.725445   246A      2.756273  
     247A      2.785114   248A      2.805222   249A      2.855332  
     250A      2.877539   251A      2.878456   252A      2.883106  
     253A      2.944025   254A      2.986026   255A      3.085658  
     256A      3.620782  

    Final Occupation by Irrep:
              A 
    DOCC [    51 ]

  @DF-RHF Final Energy:  -921.83722088391983

   => Energetics <=

    Nuclear Repulsion Energy =            840.1008175973823882
    One-Electron Energy =               -2912.0763637796026160
    Two-Electron Energy =                1150.1383252983002876
    Total Energy =                       -921.8372208839198265

Computation Completed


Properties will be evaluated at   0.000000,   0.000000,   0.000000 [a0]

Properties computed using the SCF density matrix

  Nuclear Dipole Moment: [e a0]
     X:    26.9105      Y:     6.9724      Z:    -8.1117

  Electronic Dipole Moment: [e a0]
     X:   -23.6932      Y:    -5.6566      Z:     6.8710

  Dipole Moment: [e a0]
     X:     3.2172      Y:     1.3157      Z:    -1.2406     Total:     3.6907

  Dipole Moment: [D]
     X:     8.1774      Y:     3.3442      Z:    -3.1534     Total:     9.3807


*** tstop() called on skystd23.palmetto.clemson.edu at Sat Oct  9 03:53:23 2021
Module time:
	user time   =      15.98 seconds =       0.27 minutes
	system time =       0.73 seconds =       0.01 minutes
	total time  =         16 seconds =       0.27 minutes
Total time:
	user time   =      15.98 seconds =       0.27 minutes
	system time =       0.73 seconds =       0.01 minutes
	total time  =         16 seconds =       0.27 minutes

*** tstart() called on skystd23.palmetto.clemson.edu
*** at Sat Oct  9 03:53:23 2021


  //>>>>>>>>>>>>>>>>>>>>>>>>>>>>>>>>>>>//
  //               DFMP2               //
  //<<<<<<<<<<<<<<<<<<<<<<<<<<<<<<<<<<<//

   => Loading Basis Set <=

    Name: (CC-PVDZ AUX)
    Role: RIFIT
    Keyword: DF_BASIS_MP2
    atoms 1-5, 12-17, 23            entry C          line   159 file /home/maxbuskirk/.conda/envs/psifour/share/psi4/basis/cc-pvdz-ri.gbs 
    atoms 6-11, 18-19, 21-22, 24-27 entry H          line    19 file /home/maxbuskirk/.conda/envs/psifour/share/psi4/basis/cc-pvdz-ri.gbs 
    atoms 20                        entry CL         line   649 file /home/maxbuskirk/.conda/envs/psifour/share/psi4/basis/cc-pvdz-ri.gbs 

	 --------------------------------------------------------
	                          DF-MP2                         
	      2nd-Order Density-Fitted Moller-Plesset Theory     
	              RMP2 Wavefunction,   1 Threads             
	                                                         
	        Rob Parrish, Justin Turney, Andy Simmonett,      
	           Ed Hohenstein, and C. David Sherrill          
	 --------------------------------------------------------

   => Auxiliary Basis Set <=

  Basis Set: (CC-PVDZ AUX)
    Blend: CC-PVDZ-RI
    Number of shells: 324
    Number of basis functions: 944
    Number of Cartesian functions: 1092
    Spherical Harmonics?: true
    Max angular momentum: 3

	 --------------------------------------------------------
	                 NBF =   256, NAUX =   944
	 --------------------------------------------------------
	   CLASS    FOCC     OCC    AOCC    AVIR     VIR    FVIR
	   PAIRS       0      51      51     205     205       0
	 --------------------------------------------------------

  DFHelper Memory: AOs need 0.577 GiB; user supplied 22.352 GiB. Using in-core AOs.


         ------------------------------------------------------------
                                     CPHF                           
                                  Rob Parrish                       
         ------------------------------------------------------------

  ==> Geometry <==

    Molecular point group: c1
    Full point group: C1

    Geometry (in Angstrom), charge = 1, multiplicity = 1:

       Center              X                  Y                   Z               Mass       
    ------------   -----------------  -----------------  -----------------  -----------------
         C            2.940729029582    -0.379409089862    -1.695460555315    12.000000000000
         C            1.306346396785     1.037487004860    -0.787097816623    12.000000000000
         C            2.129690625959     1.891254331322     0.047416379718    12.000000000000
         C            3.275565283143     0.838087475447     0.470999750447    12.000000000000
         C            3.954433852296     0.281334491811    -0.772246344920    12.000000000000
         H            4.708811189259    -0.465375660880    -0.469358718295     1.007825032230
         H            4.489814122413     1.084709919576    -1.306366160151     1.007825032230
         H            2.827060621243     0.041411311681     1.085578774066     1.007825032230
         H            3.953784402442     1.417870288066     1.116959404125     1.007825032230
         H            1.622287334698     2.247985309516     0.952331460703     1.007825032230
         H            2.634260038865     2.694940997202    -0.508160621028     1.007825032230
         C            0.108646912984     0.385120581970    -0.234886831863    12.000000000000
         C            0.121948195924    -0.845970366045     0.452501273746    12.000000000000
         C           -1.078690664069    -1.380616215345     0.939747895239    12.000000000000
         C           -2.286537703094    -0.691303364736     0.743111087908    12.000000000000
         C           -2.302733546077     0.535734644026     0.057332791353    12.000000000000
         C           -1.108332868688     1.078191933176    -0.432636553357    12.000000000000
         H           -1.130281269030     2.034599789926    -0.964567440166     1.007825032230
         H           -3.246307031747     1.066203252700    -0.092162923044     1.007825032230
         CL          -3.760940356643    -1.353766413414     1.349332035430    34.968852682000
         H           -1.076086740127    -2.333833331374     1.473847530993     1.007825032230
         H            1.052104358736    -1.395645337307     0.614975137100     1.007825032230
         C            1.796182378929     0.681448397799    -2.104787207565    12.000000000000
         H            1.051648936676     0.176712268889    -2.732847492244     1.007825032230
         H            2.306769475520     1.506850745830    -2.621712281795     1.007825032230
         H            2.469872554531    -1.257787967625    -1.226081372511     1.007825032230
         H            3.369173222568    -0.703155081736    -2.657557322757     1.007825032230

  Nuclear repulsion =  840.100817597382388
  Reference energy  = -921.837220883919827

  ==> Basis Set <==

  Basis Set: CC-PVDZ
    Blend: CC-PVDZ
    Number of shells: 122
    Number of basis functions: 256
    Number of Cartesian functions: 269
    Spherical Harmonics?: true
    Max angular momentum: 2

  ==> CGRSolver (by Rob Parrish) <==

   Number of roots    =         1
   Preconditioning    =    JACOBI
   Convergence cutoff =     1E-06
   Maximum iterations =       100

  ==> CPHFRHamiltonian (by Rob Parrish) <== 

  ==> MemDFJK: Density-Fitted J/K Matrices <==

    J tasked:                   Yes
    K tasked:                   Yes
    wK tasked:                   No
    OpenMP threads:               1
    Memory [MiB]:             22888
    Algorithm:                 Core
    Schwarz Cutoff:           1E-12
    Mask sparsity (%):      10.9833
    Fitting Condition:        1E-10

   => Auxiliary Basis Set <=

  Basis Set: (CC-PVDZ AUX)
    Blend: CC-PVDZ-JKFIT
    Number of shells: 450
    Number of basis functions: 1274
    Number of Cartesian functions: 1452
    Spherical Harmonics?: true
    Max angular momentum: 3

  ==> CPHF Iterations <==

  => Iterations <=

             Iter  Converged  Remaining    Residual
  CGR           1          0          1   1.229E-01
  CGR           2          0          1   3.459E-02
  CGR           3          0          1   1.470E-02
  CGR           4          0          1   4.121E-03
  CGR           5          0          1   1.836E-03
  CGR           6          0          1   7.543E-04
  CGR           7          0          1   3.012E-04
  CGR           8          0          1   9.203E-05
  CGR           9          0          1   4.099E-05
  CGR          10          0          1   1.604E-05
  CGR          11          0          1   7.659E-06
  CGR          12          0          1   3.088E-06
  CGR          13          0          1   1.027E-06
  CGR          14          1          0   3.127E-07

    CGRSolver converged.

  ==> DFCorrGrad: Density-Fitted Correlated Gradients <==

    OpenMP threads:              1
    Integrals threads:           1
    Memory [GiB]:           22.352
    Schwarz Cutoff:          0E+00
    Fitting Condition:       1E-10

   => Auxiliary Basis Set <=

  Basis Set: (CC-PVDZ AUX)
    Blend: CC-PVDZ-JKFIT
    Number of shells: 450
    Number of basis functions: 1274
    Number of Cartesian functions: 1452
    Spherical Harmonics?: true
    Max angular momentum: 3

	-----------------------------------------------------------
	 ==================> DF-MP2 Energies <==================== 
	-----------------------------------------------------------
	 Reference Energy          =    -921.8372208839198265 [Eh]
	 Singles Energy            =      -0.0000000000000000 [Eh]
	 Same-Spin Energy          =      -0.4631543713727392 [Eh]
	 Opposite-Spin Energy      =      -1.3088738850867485 [Eh]
	 Correlation Energy        =      -1.7720282564594878 [Eh]
	 Total Energy              =    -923.6092491403793474 [Eh]
	-----------------------------------------------------------
	 ================> DF-SCS-MP2 Energies <================== 
	-----------------------------------------------------------
	 SCS Same-Spin Scale       =       0.3333333333333333 [-]
	 SCS Opposite-Spin Scale   =       1.2000000000000000 [-]
	 SCS Same-Spin Energy      =      -0.1543847904575797 [Eh]
	 SCS Opposite-Spin Energy  =      -1.5706486621040983 [Eh]
	 SCS Correlation Energy    =      -1.7250334525616779 [Eh]
	 SCS Total Energy          =    -923.5622543364814874 [Eh]
	-----------------------------------------------------------


  -Total Gradient:
     Atom            X                  Y                   Z
    ------   -----------------  -----------------  -----------------
       1        0.000114817544     0.000003610419     0.000133309302
       2        0.000037228276     0.000074455946     0.000016940029
       3        0.000038243365    -0.000015282264     0.000025591789
       4       -0.000024329737    -0.000004605562    -0.000002820450
       5        0.000022294318    -0.000007216944     0.000083016216
       6        0.000008268693     0.000004287562    -0.000017910263
       7       -0.000026419440     0.000015047657    -0.000002833832
       8       -0.000003753168     0.000004140925     0.000001436139
       9        0.000007015132    -0.000005218725    -0.000005641786
      10       -0.000005851856    -0.000018641198     0.000000671369
      11       -0.000003414678     0.000003614080     0.000004447869
      12       -0.000023380267    -0.000024417968    -0.000064100702
      13        0.000017399980     0.000039742483     0.000090914993
      14        0.000182166068    -0.000000662466    -0.000084060206
      15       -0.000606965806    -0.000298000655     0.000195659079
      16        0.000119416140     0.000091352221    -0.000133388468
      17       -0.000003252517     0.000013664301     0.000005050062
      18       -0.000002701981     0.000005236752     0.000008832015
      19       -0.000006413384    -0.000011069045     0.000000222625
      20        0.000321227126     0.000177728571    -0.000061874978
      21       -0.000012186679    -0.000002329431    -0.000003798229
      22        0.000000753401    -0.000001468948     0.000001756943
      23       -0.000169038987     0.000054725896    -0.000015799770
      24        0.000018929787    -0.000016548573    -0.000009935627
      25        0.000008421506     0.000004532330     0.000011337989
      26       -0.000005892891     0.000007989818     0.000018170525
      27       -0.000002579984    -0.000094667217    -0.000195192662


*** tstop() called on skystd23.palmetto.clemson.edu at Sat Oct  9 03:54:42 2021
Module time:
	user time   =      75.01 seconds =       1.25 minutes
	system time =       3.64 seconds =       0.06 minutes
	total time  =         79 seconds =       1.32 minutes
Total time:
	user time   =      90.99 seconds =       1.52 minutes
	system time =       4.37 seconds =       0.07 minutes
	total time  =         95 seconds =       1.58 minutes

  Based on options and gradient (rms=1.03E-04), recommend projecting translations and projecting rotations.
hessian() will perform frequency computation by finite difference of analytic gradients.

         ----------------------------------------------------------
                                   FINDIF
                     R. A. King and Jonathon Misiewicz
         ---------------------------------------------------------

  Using finite-differences of gradients to determine vibrational frequencies and 
  normal modes. Resulting frequencies are only valid at stationary points.
    Generating geometries for use with 3-point formula.
    Displacement size will be 5.00e-03.
    Number of atoms is 27.
    Number of irreps is 1.
    Number of SALCs is 75.
    Translations projected? 1. Rotations projected? 1.
    Index of SALCs per irrep:
     1 :  0  1  2  3  4  5  6  7  8  9  10  11  12  13  14  15  16  17  18  19  20  21  22  23  24  25  26  27  28  29  30  31  32  33  34  35  36  37  38  39  40  41  42  43  44  45  46  47  48  49  50  51  52  53  54  55  56  57  58  59  60  61  62  63  64  65  66  67  68  69  70  71  72  73  74 
    Number of SALCs per irrep:
     Irrep 1: 75
    Number of geometries (including reference) is 151.
    Number of displacements per irrep:
      Irrep 1: 150

  //>>>>>>>>>>>>>>>>>>>>>>>>>>>>>>>>>>>//
  //   Loading displacement 1 of 151   //
  //<<<<<<<<<<<<<<<<<<<<<<<<<<<<<<<<<<<//

Scratch directory: /tmp/
gradient() will perform analytic gradient computation.

*** tstart() called on skystd23.palmetto.clemson.edu
*** at Sat Oct  9 03:54:44 2021

   => Loading Basis Set <=

    Name: CC-PVDZ
    Role: ORBITAL
    Keyword: BASIS
    atoms 1-5, 12-17, 23            entry C          line   138 file /home/maxbuskirk/.conda/envs/psifour/share/psi4/basis/cc-pvdz.gbs 
    atoms 6-11, 18-19, 21-22, 24-27 entry H          line    22 file /home/maxbuskirk/.conda/envs/psifour/share/psi4/basis/cc-pvdz.gbs 
    atoms 20                        entry CL         line   658 file /home/maxbuskirk/.conda/envs/psifour/share/psi4/basis/cc-pvdz.gbs 


         ---------------------------------------------------------
                                   SCF
               by Justin Turney, Rob Parrish, Andy Simmonett
                          and Daniel G. A. Smith
                              RHF Reference
                        1 Threads,  30517 MiB Core
         ---------------------------------------------------------

  ==> Geometry <==

    Molecular point group: c1
    Full point group: C1

    Geometry (in Angstrom), charge = 1, multiplicity = 1:

       Center              X                  Y                   Z               Mass       
    ------------   -----------------  -----------------  -----------------  -----------------
         C            2.940729029582    -0.379409089862    -1.695460555315    12.000000000000
         C            1.306346396785     1.037487004860    -0.787097816623    12.000000000000
         C            2.129690625959     1.891254331322     0.047416379718    12.000000000000
         C            3.275565283143     0.838087475447     0.470999750447    12.000000000000
         C            3.954433852296     0.281334491811    -0.772246344920    12.000000000000
         H            4.708811189259    -0.465375660880    -0.469358718295     1.007825032230
         H            4.489814122413     1.084709919576    -1.306366160151     1.007825032230
         H            2.827060621243     0.041411311681     1.085578774066     1.007825032230
         H            3.953784402442     1.417870288066     1.116959404125     1.007825032230
         H            1.622287334698     2.247985309516     0.952331460703     1.007825032230
         H            2.634260038865     2.694940997202    -0.508160621028     1.007825032230
         C            0.108646912984     0.385120581970    -0.234886831863    12.000000000000
         C            0.121948195924    -0.845970366045     0.452501273746    12.000000000000
         C           -1.078690664069    -1.380616215345     0.939747895239    12.000000000000
         C           -2.286537703094    -0.691303364736     0.743111087908    12.000000000000
         C           -2.302733546077     0.535734644026     0.057332791353    12.000000000000
         C           -1.108332868688     1.078191933176    -0.432636553357    12.000000000000
         H           -1.130281269030     2.034599789926    -0.964567440166     1.007825032230
         H           -3.246307031747     1.066203252700    -0.092162923044     1.007825032230
         CL          -3.760940356643    -1.353766413414     1.349332035430    34.968852682000
         H           -1.076086740127    -2.333833331374     1.473847530993     1.007825032230
         H            1.052104358736    -1.395645337307     0.614975137100     1.007825032230
         C            1.796182378929     0.681448397799    -2.104787207565    12.000000000000
         H            1.051648936676     0.176712268889    -2.732847492244     1.007825032230
         H            2.306769475520     1.506850745830    -2.621712281795     1.007825032230
         H            2.469872554531    -1.257787967625    -1.226081372511     1.007825032230
         H            3.369173222568    -0.703155081736    -2.657557322757     1.007825032230

  Running in c1 symmetry.

  Rotational constants: A =      0.06663  B =      0.01057  C =      0.01023 [cm^-1]
  Rotational constants: A =   1997.55320  B =    316.85798  C =    306.80964 [MHz]
  Nuclear repulsion =  840.100817597382388

  Charge       = 1
  Multiplicity = 1
  Electrons    = 102
  Nalpha       = 51
  Nbeta        = 51

  ==> Algorithm <==

  SCF Algorithm Type is DF.
  DIIS enabled.
  MOM disabled.
  Fractional occupation disabled.
  Guess Type is SAD.
  Energy threshold   = 1.00e-10
  Density threshold  = 1.00e-10
  Integral threshold = 1.00e-12

  ==> Primary Basis <==

  Basis Set: CC-PVDZ
    Blend: CC-PVDZ
    Number of shells: 122
    Number of basis functions: 256
    Number of Cartesian functions: 269
    Spherical Harmonics?: true
    Max angular momentum: 2

   => Loading Basis Set <=

    Name: (CC-PVDZ AUX)
    Role: JKFIT
    Keyword: DF_BASIS_SCF
    atoms 1-5, 12-17, 23            entry C          line   121 file /home/maxbuskirk/.conda/envs/psifour/share/psi4/basis/cc-pvdz-jkfit.gbs 
    atoms 6-11, 18-19, 21-22, 24-27 entry H          line    51 file /home/maxbuskirk/.conda/envs/psifour/share/psi4/basis/cc-pvdz-jkfit.gbs 
    atoms 20                        entry CL         line   667 file /home/maxbuskirk/.conda/envs/psifour/share/psi4/basis/cc-pvdz-jkfit.gbs 

  ==> Integral Setup <==

  DFHelper Memory: AOs need 0.577 GiB; user supplied 22.352 GiB. Using in-core AOs.

  ==> MemDFJK: Density-Fitted J/K Matrices <==

    J tasked:                   Yes
    K tasked:                   Yes
    wK tasked:                   No
    OpenMP threads:               1
    Memory [MiB]:             22888
    Algorithm:                 Core
    Schwarz Cutoff:           1E-12
    Mask sparsity (%):      10.9833
    Fitting Condition:        1E-10

   => Auxiliary Basis Set <=

  Basis Set: (CC-PVDZ AUX)
    Blend: CC-PVDZ-JKFIT
    Number of shells: 450
    Number of basis functions: 1274
    Number of Cartesian functions: 1452
    Spherical Harmonics?: true
    Max angular momentum: 3

  Minimum eigenvalue in the overlap matrix is 3.1793259945E-04.
  Reciprocal condition number of the overlap matrix is 4.5622666181E-05.
    Using symmetric orthogonalization.

  ==> Pre-Iterations <==

  SCF Guess: Superposition of Atomic Densities via on-the-fly atomic UHF (no occupation information).

   -------------------------
    Irrep   Nso     Nmo    
   -------------------------
     A        256     256 
   -------------------------
    Total     256     256
   -------------------------

  ==> Iterations <==

                           Total Energy        Delta E     RMS |[F,P]|

   @DF-RHF iter SAD:  -921.72262965233290   -9.21723e+02   0.00000e+00 
   @DF-RHF iter   1:  -921.61631555664007    1.06314e-01   2.09691e-03 DIIS
   @DF-RHF iter   2:  -921.80536974518111   -1.89054e-01   8.42847e-04 DIIS
   @DF-RHF iter   3:  -921.83248232398648   -2.71126e-02   2.88406e-04 DIIS
   @DF-RHF iter   4:  -921.83690178011148   -4.41946e-03   6.13350e-05 DIIS
   @DF-RHF iter   5:  -921.83715553803870   -2.53758e-04   2.73242e-05 DIIS
   @DF-RHF iter   6:  -921.83721160376354   -5.60657e-05   8.95188e-06 DIIS
   @DF-RHF iter   7:  -921.83721942059174   -7.81683e-06   3.89202e-06 DIIS
   @DF-RHF iter   8:  -921.83722070810506   -1.28751e-06   1.27601e-06 DIIS
   @DF-RHF iter   9:  -921.83722085474676   -1.46642e-07   4.43257e-07 DIIS
   @DF-RHF iter  10:  -921.83722087535114   -2.06044e-08   1.99581e-07 DIIS
   @DF-RHF iter  11:  -921.83722088153718   -6.18604e-09   1.02105e-07 DIIS
   @DF-RHF iter  12:  -921.83722088313141   -1.59423e-09   4.15155e-08 DIIS
   @DF-RHF iter  13:  -921.83722088338061   -2.49202e-10   1.71672e-08 DIIS
   @DF-RHF iter  14:  -921.83722088343018   -4.95675e-11   6.02421e-09 DIIS
   @DF-RHF iter  15:  -921.83722088343529   -5.11591e-12   2.49726e-09 DIIS
   @DF-RHF iter  16:  -921.83722088343484    4.54747e-13   1.02951e-09 DIIS
   @DF-RHF iter  17:  -921.83722088343643   -1.59162e-12   3.73559e-10 DIIS
   @DF-RHF iter  18:  -921.83722088343586    5.68434e-13   1.45316e-10 DIIS
   @DF-RHF iter  19:  -921.83722088343654   -6.82121e-13   5.48823e-11 DIIS
  Energy and wave function converged.


  ==> Post-Iterations <==

    Orbital Energies [Eh]
    ---------------------

    Doubly Occupied:                                                      

       1A   -104.947340     2A    -11.539907     3A    -11.442324  
       4A    -11.428082     5A    -11.428044     6A    -11.425267  
       7A    -11.423194     8A    -11.423130     9A    -11.413381  
      10A    -11.411592    11A    -11.395894    12A    -11.395823  
      13A    -11.395278    14A    -10.674272    15A     -8.141918  
      16A     -8.138217    17A     -8.138171    18A     -1.363618  
      19A     -1.317122    20A     -1.259193    21A     -1.205007  
      22A     -1.201369    23A     -1.172877    24A     -1.134362  
      25A     -1.031291    26A     -1.009460    27A     -0.990558  
      28A     -0.963177    29A     -0.919252    30A     -0.863343  
      31A     -0.819725    32A     -0.803801    33A     -0.796246  
      34A     -0.794658    35A     -0.763915    36A     -0.756558  
      37A     -0.745545    38A     -0.741715    39A     -0.711699  
      40A     -0.701006    41A     -0.671391    42A     -0.661265  
      43A     -0.660865    44A     -0.656523    45A     -0.640072  
      46A     -0.636795    47A     -0.630702    48A     -0.591797  
      49A     -0.564895    50A     -0.490593    51A     -0.467626  

    Virtual:                                                              

      52A     -0.130112    53A     -0.029859    54A     -0.025735  
      55A      0.027414    56A      0.038596    57A      0.058942  
      58A      0.067684    59A      0.069939    60A      0.090731  
      61A      0.102957    62A      0.107561    63A      0.108801  
      64A      0.120879    65A      0.127571    66A      0.133271  
      67A      0.140359    68A      0.144188    69A      0.169487  
      70A      0.173122    71A      0.202840    72A      0.204004  
      73A      0.206437    74A      0.240519    75A      0.267342  
      76A      0.272687    77A      0.289900    78A      0.291306  
      79A      0.320297    80A      0.334039    81A      0.344768  
      82A      0.407765    83A      0.434697    84A      0.444504  
      85A      0.457612    86A      0.468364    87A      0.474307  
      88A      0.491142    89A      0.491759    90A      0.503165  
      91A      0.530011    92A      0.542329    93A      0.544479  
      94A      0.552700    95A      0.559249    96A      0.584016  
      97A      0.594312    98A      0.598492    99A      0.599979  
     100A      0.604136   101A      0.629753   102A      0.639463  
     103A      0.641799   104A      0.659997   105A      0.668779  
     106A      0.672188   107A      0.675425   108A      0.675659  
     109A      0.698349   110A      0.698449   111A      0.709101  
     112A      0.713549   113A      0.717562   114A      0.720891  
     115A      0.723541   116A      0.734183   117A      0.737358  
     118A      0.754808   119A      0.763799   120A      0.766586  
     121A      0.774097   122A      0.777665   123A      0.783457  
     124A      0.785553   125A      0.788176   126A      0.810157  
     127A      0.813807   128A      0.842282   129A      0.852068  
     130A      0.874250   131A      0.881639   132A      0.899401  
     133A      0.924109   134A      0.942150   135A      0.955500  
     136A      0.975851   137A      0.993435   138A      1.008550  
     139A      1.018463   140A      1.041551   141A      1.049532  
     142A      1.059887   143A      1.079430   144A      1.083256  
     145A      1.092551   146A      1.138020   147A      1.144547  
     148A      1.158170   149A      1.185266   150A      1.205892  
     151A      1.220484   152A      1.220794   153A      1.269209  
     154A      1.279306   155A      1.279887   156A      1.295022  
     157A      1.320826   158A      1.323230   159A      1.349621  
     160A      1.351194   161A      1.391581   162A      1.420940  
     163A      1.472879   164A      1.478821   165A      1.517700  
     166A      1.519551   167A      1.569706   168A      1.574578  
     169A      1.588677   170A      1.600096   171A      1.602000  
     172A      1.628337   173A      1.659395   174A      1.659460  
     175A      1.664231   176A      1.676236   177A      1.687448  
     178A      1.711313   179A      1.714292   180A      1.721869  
     181A      1.722596   182A      1.735815   183A      1.742098  
     184A      1.752572   185A      1.757606   186A      1.763703  
     187A      1.772258   188A      1.788278   189A      1.794133  
     190A      1.802938   191A      1.810310   192A      1.818248  
     193A      1.826835   194A      1.834647   195A      1.836459  
     196A      1.844266   197A      1.861973   198A      1.866555  
     199A      1.874065   200A      1.884923   201A      1.909961  
     202A      1.914859   203A      1.928533   204A      1.932606  
     205A      1.965059   206A      1.980057   207A      1.985478  
     208A      1.993974   209A      2.000556   210A      2.029392  
     211A      2.045327   212A      2.054731   213A      2.092077  
     214A      2.097265   215A      2.108707   216A      2.111043  
     217A      2.144300   218A      2.162944   219A      2.175755  
     220A      2.185920   221A      2.205460   222A      2.229138  
     223A      2.237532   224A      2.278630   225A      2.289461  
     226A      2.311359   227A      2.334452   228A      2.344710  
     229A      2.363003   230A      2.364783   231A      2.385149  
     232A      2.434921   233A      2.478275   234A      2.486373  
     235A      2.518321   236A      2.549554   237A      2.585593  
     238A      2.593276   239A      2.602504   240A      2.616831  
     241A      2.623516   242A      2.654225   243A      2.689170  
     244A      2.695814   245A      2.725445   246A      2.756273  
     247A      2.785114   248A      2.805222   249A      2.855332  
     250A      2.877539   251A      2.878456   252A      2.883106  
     253A      2.944025   254A      2.986026   255A      3.085658  
     256A      3.620782  

    Final Occupation by Irrep:
              A 
    DOCC [    51 ]

  @DF-RHF Final Energy:  -921.83722088343654

   => Energetics <=

    Nuclear Repulsion Energy =            840.1008175973823882
    One-Electron Energy =               -2912.0763637794125316
    Two-Electron Energy =                1150.1383252985933723
    Total Energy =                       -921.8372208834366575

Computation Completed


Properties will be evaluated at   0.000000,   0.000000,   0.000000 [a0]

Properties computed using the SCF density matrix

  Nuclear Dipole Moment: [e a0]
     X:    26.9105      Y:     6.9724      Z:    -8.1117

  Electronic Dipole Moment: [e a0]
     X:   -23.6932      Y:    -5.6566      Z:     6.8710

  Dipole Moment: [e a0]
     X:     3.2172      Y:     1.3157      Z:    -1.2406     Total:     3.6907

  Dipole Moment: [D]
     X:     8.1774      Y:     3.3442      Z:    -3.1534     Total:     9.3807


*** tstop() called on skystd23.palmetto.clemson.edu at Sat Oct  9 03:55:01 2021
Module time:
	user time   =      16.57 seconds =       0.28 minutes
	system time =       0.73 seconds =       0.01 minutes
	total time  =         17 seconds =       0.28 minutes
Total time:
	user time   =     107.78 seconds =       1.80 minutes
	system time =       5.15 seconds =       0.09 minutes
	total time  =        114 seconds =       1.90 minutes

*** tstart() called on skystd23.palmetto.clemson.edu
*** at Sat Oct  9 03:55:01 2021


  //>>>>>>>>>>>>>>>>>>>>>>>>>>>>>>>>>>>//
  //               DFMP2               //
  //<<<<<<<<<<<<<<<<<<<<<<<<<<<<<<<<<<<//

   => Loading Basis Set <=

    Name: (CC-PVDZ AUX)
    Role: RIFIT
    Keyword: DF_BASIS_MP2
    atoms 1-5, 12-17, 23            entry C          line   159 file /home/maxbuskirk/.conda/envs/psifour/share/psi4/basis/cc-pvdz-ri.gbs 
    atoms 6-11, 18-19, 21-22, 24-27 entry H          line    19 file /home/maxbuskirk/.conda/envs/psifour/share/psi4/basis/cc-pvdz-ri.gbs 
    atoms 20                        entry CL         line   649 file /home/maxbuskirk/.conda/envs/psifour/share/psi4/basis/cc-pvdz-ri.gbs 

	 --------------------------------------------------------
	                          DF-MP2                         
	      2nd-Order Density-Fitted Moller-Plesset Theory     
	              RMP2 Wavefunction,   1 Threads             
	                                                         
	        Rob Parrish, Justin Turney, Andy Simmonett,      
	           Ed Hohenstein, and C. David Sherrill          
	 --------------------------------------------------------

   => Auxiliary Basis Set <=

  Basis Set: (CC-PVDZ AUX)
    Blend: CC-PVDZ-RI
    Number of shells: 324
    Number of basis functions: 944
    Number of Cartesian functions: 1092
    Spherical Harmonics?: true
    Max angular momentum: 3

	 --------------------------------------------------------
	                 NBF =   256, NAUX =   944
	 --------------------------------------------------------
	   CLASS    FOCC     OCC    AOCC    AVIR     VIR    FVIR
	   PAIRS       0      51      51     205     205       0
	 --------------------------------------------------------

  DFHelper Memory: AOs need 0.577 GiB; user supplied 22.352 GiB. Using in-core AOs.


         ------------------------------------------------------------
                                     CPHF                           
                                  Rob Parrish                       
         ------------------------------------------------------------

  ==> Geometry <==

    Molecular point group: c1
    Full point group: C1

    Geometry (in Angstrom), charge = 1, multiplicity = 1:

       Center              X                  Y                   Z               Mass       
    ------------   -----------------  -----------------  -----------------  -----------------
         C            2.940729029582    -0.379409089862    -1.695460555315    12.000000000000
         C            1.306346396785     1.037487004860    -0.787097816623    12.000000000000
         C            2.129690625959     1.891254331322     0.047416379718    12.000000000000
         C            3.275565283143     0.838087475447     0.470999750447    12.000000000000
         C            3.954433852296     0.281334491811    -0.772246344920    12.000000000000
         H            4.708811189259    -0.465375660880    -0.469358718295     1.007825032230
         H            4.489814122413     1.084709919576    -1.306366160151     1.007825032230
         H            2.827060621243     0.041411311681     1.085578774066     1.007825032230
         H            3.953784402442     1.417870288066     1.116959404125     1.007825032230
         H            1.622287334698     2.247985309516     0.952331460703     1.007825032230
         H            2.634260038865     2.694940997202    -0.508160621028     1.007825032230
         C            0.108646912984     0.385120581970    -0.234886831863    12.000000000000
         C            0.121948195924    -0.845970366045     0.452501273746    12.000000000000
         C           -1.078690664069    -1.380616215345     0.939747895239    12.000000000000
         C           -2.286537703094    -0.691303364736     0.743111087908    12.000000000000
         C           -2.302733546077     0.535734644026     0.057332791353    12.000000000000
         C           -1.108332868688     1.078191933176    -0.432636553357    12.000000000000
         H           -1.130281269030     2.034599789926    -0.964567440166     1.007825032230
         H           -3.246307031747     1.066203252700    -0.092162923044     1.007825032230
         CL          -3.760940356643    -1.353766413414     1.349332035430    34.968852682000
         H           -1.076086740127    -2.333833331374     1.473847530993     1.007825032230
         H            1.052104358736    -1.395645337307     0.614975137100     1.007825032230
         C            1.796182378929     0.681448397799    -2.104787207565    12.000000000000
         H            1.051648936676     0.176712268889    -2.732847492244     1.007825032230
         H            2.306769475520     1.506850745830    -2.621712281795     1.007825032230
         H            2.469872554531    -1.257787967625    -1.226081372511     1.007825032230
         H            3.369173222568    -0.703155081736    -2.657557322757     1.007825032230

  Nuclear repulsion =  840.100817597382388
  Reference energy  = -921.837220883436544

  ==> Basis Set <==

  Basis Set: CC-PVDZ
    Blend: CC-PVDZ
    Number of shells: 122
    Number of basis functions: 256
    Number of Cartesian functions: 269
    Spherical Harmonics?: true
    Max angular momentum: 2

  ==> CGRSolver (by Rob Parrish) <==

   Number of roots    =         1
   Preconditioning    =    JACOBI
   Convergence cutoff =     1E-06
   Maximum iterations =       100

  ==> CPHFRHamiltonian (by Rob Parrish) <== 

  ==> MemDFJK: Density-Fitted J/K Matrices <==

    J tasked:                   Yes
    K tasked:                   Yes
    wK tasked:                   No
    OpenMP threads:               1
    Memory [MiB]:             22888
    Algorithm:                 Core
    Schwarz Cutoff:           1E-12
    Mask sparsity (%):      10.9833
    Fitting Condition:        1E-10

   => Auxiliary Basis Set <=

  Basis Set: (CC-PVDZ AUX)
    Blend: CC-PVDZ-JKFIT
    Number of shells: 450
    Number of basis functions: 1274
    Number of Cartesian functions: 1452
    Spherical Harmonics?: true
    Max angular momentum: 3

  ==> CPHF Iterations <==

  => Iterations <=

             Iter  Converged  Remaining    Residual
  CGR           1          0          1   1.229E-01
  CGR           2          0          1   3.459E-02
  CGR           3          0          1   1.470E-02
  CGR           4          0          1   4.121E-03
  CGR           5          0          1   1.836E-03
  CGR           6          0          1   7.543E-04
  CGR           7          0          1   3.012E-04
  CGR           8          0          1   9.203E-05
  CGR           9          0          1   4.099E-05
  CGR          10          0          1   1.604E-05
  CGR          11          0          1   7.659E-06
  CGR          12          0          1   3.088E-06
  CGR          13          0          1   1.027E-06
  CGR          14          1          0   3.127E-07

    CGRSolver converged.

  ==> DFCorrGrad: Density-Fitted Correlated Gradients <==

    OpenMP threads:              1
    Integrals threads:           1
    Memory [GiB]:           22.352
    Schwarz Cutoff:          0E+00
    Fitting Condition:       1E-10

   => Auxiliary Basis Set <=

  Basis Set: (CC-PVDZ AUX)
    Blend: CC-PVDZ-JKFIT
    Number of shells: 450
    Number of basis functions: 1274
    Number of Cartesian functions: 1452
    Spherical Harmonics?: true
    Max angular momentum: 3

	-----------------------------------------------------------
	 ==================> DF-MP2 Energies <==================== 
	-----------------------------------------------------------
	 Reference Energy          =    -921.8372208834365438 [Eh]
	 Singles Energy            =      -0.0000000000000000 [Eh]
	 Same-Spin Energy          =      -0.4631543713715228 [Eh]
	 Opposite-Spin Energy      =      -1.3088738850844510 [Eh]
	 Correlation Energy        =      -1.7720282564559739 [Eh]
	 Total Energy              =    -923.6092491398925404 [Eh]
	-----------------------------------------------------------
	 ================> DF-SCS-MP2 Energies <================== 
	-----------------------------------------------------------
	 SCS Same-Spin Scale       =       0.3333333333333333 [-]
	 SCS Opposite-Spin Scale   =       1.2000000000000000 [-]
	 SCS Same-Spin Energy      =      -0.1543847904571743 [Eh]
	 SCS Opposite-Spin Energy  =      -1.5706486621013411 [Eh]
	 SCS Correlation Energy    =      -1.7250334525585154 [Eh]
	 SCS Total Energy          =    -923.5622543359950214 [Eh]
	-----------------------------------------------------------


  -Total Gradient:
     Atom            X                  Y                   Z
    ------   -----------------  -----------------  -----------------
       1        0.000114812911     0.000003608190     0.000133311392
       2        0.000037240483     0.000074459777     0.000016936182
       3        0.000038234425    -0.000015286274     0.000025600742
       4       -0.000024336747    -0.000004608639    -0.000002817553
       5        0.000022289339    -0.000007215178     0.000083015836
       6        0.000008273753     0.000004283040    -0.000017908269
       7       -0.000026417566     0.000015051702    -0.000002836455
       8       -0.000003753268     0.000004140220     0.000001436392
       9        0.000007018048    -0.000005216349    -0.000005638329
      10       -0.000005854598    -0.000018641412     0.000000673283
      11       -0.000003412236     0.000003618061     0.000004445478
      12       -0.000023367018    -0.000024422650    -0.000064109974
      13        0.000017374342     0.000039744899     0.000090924451
      14        0.000182173595    -0.000000656377    -0.000084064769
      15       -0.000606967213    -0.000298002915     0.000195657702
      16        0.000119433846     0.000091360537    -0.000133396688
      17       -0.000003257404     0.000013652593     0.000005059223
      18       -0.000002701656     0.000005228318     0.000008836860
      19       -0.000006403413    -0.000011074710     0.000000224212
      20        0.000321232003     0.000177730413    -0.000061876331
      21       -0.000012186708    -0.000002316146    -0.000003805701
      22        0.000000743352    -0.000001462359     0.000001755626
      23       -0.000169047006     0.000054720288    -0.000015794581
      24        0.000018926270    -0.000016550987    -0.000009937892
      25        0.000008424347     0.000004536609     0.000011334864
      26       -0.000005893547     0.000007988384     0.000018171413
      27       -0.000002578366    -0.000094669069    -0.000195197145


*** tstop() called on skystd23.palmetto.clemson.edu at Sat Oct  9 03:56:19 2021
Module time:
	user time   =      74.19 seconds =       1.24 minutes
	system time =       3.40 seconds =       0.06 minutes
	total time  =         78 seconds =       1.30 minutes
Total time:
	user time   =     181.97 seconds =       3.03 minutes
	system time =       8.55 seconds =       0.14 minutes
	total time  =        192 seconds =       3.20 minutes

  //>>>>>>>>>>>>>>>>>>>>>>>>>>>>>>>>>>>//
  //   Loading displacement 2 of 151   //
  //<<<<<<<<<<<<<<<<<<<<<<<<<<<<<<<<<<<//

Scratch directory: /tmp/
gradient() will perform analytic gradient computation.

*** tstart() called on skystd23.palmetto.clemson.edu
*** at Sat Oct  9 03:56:19 2021

   => Loading Basis Set <=

    Name: CC-PVDZ
    Role: ORBITAL
    Keyword: BASIS
    atoms 1-5, 12-17, 23            entry C          line   138 file /home/maxbuskirk/.conda/envs/psifour/share/psi4/basis/cc-pvdz.gbs 
    atoms 6-11, 18-19, 21-22, 24-27 entry H          line    22 file /home/maxbuskirk/.conda/envs/psifour/share/psi4/basis/cc-pvdz.gbs 
    atoms 20                        entry CL         line   658 file /home/maxbuskirk/.conda/envs/psifour/share/psi4/basis/cc-pvdz.gbs 


         ---------------------------------------------------------
                                   SCF
               by Justin Turney, Rob Parrish, Andy Simmonett
                          and Daniel G. A. Smith
                              RHF Reference
                        1 Threads,  30517 MiB Core
         ---------------------------------------------------------

  ==> Geometry <==

    Molecular point group: c1
    Full point group: C1

    Geometry (in Angstrom), charge = 1, multiplicity = 1:

       Center              X                  Y                   Z               Mass       
    ------------   -----------------  -----------------  -----------------  -----------------
         C            2.940002937193    -0.379414577858    -1.695411732769    12.000000000000
         C            1.306400213646     1.037484027551    -0.787095300560    12.000000000000
         C            2.129726067936     1.891270629855     0.047417304161    12.000000000000
         C            3.275602248615     0.838118871464     0.471034090829    12.000000000000
         C            3.954492972260     0.281351079168    -0.772193275540    12.000000000000
         H            4.708871352135    -0.465348752294    -0.469282801443     1.007825032230
         H            4.489875150564     1.084721923857    -1.306318071535     1.007825032230
         H            2.827094458851     0.041449203937     1.085619252858     1.007825032230
         H            3.953807736556     1.417916903212     1.116994396650     1.007825032230
         H            1.622307005278     2.248012289829     0.952319330903     1.007825032230
         H            2.634297698986     2.694952146665    -0.508165130632     1.007825032230
         C            0.108697456184     0.385117641017    -0.234891373147    12.000000000000
         C            0.121997722625    -0.845962282566     0.452516496551    12.000000000000
         C           -1.078644324970    -1.380609149697     0.939754146532    12.000000000000
         C           -2.286493534037    -0.691308241164     0.743088805643    12.000000000000
         C           -2.302688354364     0.535718747629     0.057290767310    12.000000000000
         C           -1.108284506769     1.078176965794    -0.432669820840    12.000000000000
         H           -1.130232147770     2.034576206285    -0.964616230952     1.007825032230
         H           -3.246263536620     1.066178092575    -0.092227110017     1.007825032230
         CL          -3.760900173460    -1.353772414571     1.349298829963    34.968852682000
         H           -1.076041215217    -2.333817756187     1.473868973381     1.007825032230
         H            1.052155533364    -1.395627881722     0.615012632918     1.007825032230
         C            1.796257968492     0.681428048650    -2.104771903892    12.000000000000
         H            1.051737349369     0.176676501123    -2.732834998677     1.007825032230
         H            2.306846562291     1.506825905981    -2.621702669816     1.007825032230
         H            2.469949512497    -1.257789430757    -1.226025437981     1.007825032230
         H            3.369266961912    -0.703172736852    -2.657497119277     1.007825032230

  Running in c1 symmetry.

  Rotational constants: A =      0.06663  B =      0.01057  C =      0.01023 [cm^-1]
  Rotational constants: A =   1997.56364  B =    316.86833  C =    306.82081 [MHz]
  Nuclear repulsion =  840.107863806230853

  Charge       = 1
  Multiplicity = 1
  Electrons    = 102
  Nalpha       = 51
  Nbeta        = 51

  ==> Algorithm <==

  SCF Algorithm Type is DF.
  DIIS enabled.
  MOM disabled.
  Fractional occupation disabled.
  Guess Type is SAD.
  Energy threshold   = 1.00e-10
  Density threshold  = 1.00e-10
  Integral threshold = 1.00e-12

  ==> Primary Basis <==

  Basis Set: CC-PVDZ
    Blend: CC-PVDZ
    Number of shells: 122
    Number of basis functions: 256
    Number of Cartesian functions: 269
    Spherical Harmonics?: true
    Max angular momentum: 2

   => Loading Basis Set <=

    Name: (CC-PVDZ AUX)
    Role: JKFIT
    Keyword: DF_BASIS_SCF
    atoms 1-5, 12-17, 23            entry C          line   121 file /home/maxbuskirk/.conda/envs/psifour/share/psi4/basis/cc-pvdz-jkfit.gbs 
    atoms 6-11, 18-19, 21-22, 24-27 entry H          line    51 file /home/maxbuskirk/.conda/envs/psifour/share/psi4/basis/cc-pvdz-jkfit.gbs 
    atoms 20                        entry CL         line   667 file /home/maxbuskirk/.conda/envs/psifour/share/psi4/basis/cc-pvdz-jkfit.gbs 

  ==> Integral Setup <==

  DFHelper Memory: AOs need 0.577 GiB; user supplied 22.352 GiB. Using in-core AOs.

  ==> MemDFJK: Density-Fitted J/K Matrices <==

    J tasked:                   Yes
    K tasked:                   Yes
    wK tasked:                   No
    OpenMP threads:               1
    Memory [MiB]:             22888
    Algorithm:                 Core
    Schwarz Cutoff:           1E-12
    Mask sparsity (%):      10.9802
    Fitting Condition:        1E-10

   => Auxiliary Basis Set <=

  Basis Set: (CC-PVDZ AUX)
    Blend: CC-PVDZ-JKFIT
    Number of shells: 450
    Number of basis functions: 1274
    Number of Cartesian functions: 1452
    Spherical Harmonics?: true
    Max angular momentum: 3

  Minimum eigenvalue in the overlap matrix is 3.1793113538E-04.
  Reciprocal condition number of the overlap matrix is 4.5621847526E-05.
    Using symmetric orthogonalization.

  ==> Pre-Iterations <==

  SCF Guess: Superposition of Atomic Densities via on-the-fly atomic UHF (no occupation information).

   -------------------------
    Irrep   Nso     Nmo    
   -------------------------
     A        256     256 
   -------------------------
    Total     256     256
   -------------------------

  ==> Iterations <==

                           Total Energy        Delta E     RMS |[F,P]|

   @DF-RHF iter SAD:  -921.72270614424565   -9.21723e+02   0.00000e+00 
   @DF-RHF iter   1:  -921.61632342164319    1.06383e-01   2.09694e-03 DIIS
   @DF-RHF iter   2:  -921.80537848504559   -1.89055e-01   8.42846e-04 DIIS
   @DF-RHF iter   3:  -921.83249113882880   -2.71127e-02   2.88394e-04 DIIS
   @DF-RHF iter   4:  -921.83691029272813   -4.41915e-03   6.13217e-05 DIIS
   @DF-RHF iter   5:  -921.83716393089651   -2.53638e-04   2.73162e-05 DIIS
   @DF-RHF iter   6:  -921.83721996210602   -5.60312e-05   8.94888e-06 DIIS
   @DF-RHF iter   7:  -921.83722777207311   -7.80997e-06   3.88977e-06 DIIS
   @DF-RHF iter   8:  -921.83722905816114   -1.28609e-06   1.27556e-06 DIIS
   @DF-RHF iter   9:  -921.83722920469006   -1.46529e-07   4.43217e-07 DIIS
   @DF-RHF iter  10:  -921.83722922529728   -2.06072e-08   1.99592e-07 DIIS
   @DF-RHF iter  11:  -921.83722923148446   -6.18718e-09   1.02108e-07 DIIS
   @DF-RHF iter  12:  -921.83722923308005   -1.59559e-09   4.15071e-08 DIIS
   @DF-RHF iter  13:  -921.83722923332812   -2.48065e-10   1.71597e-08 DIIS
   @DF-RHF iter  14:  -921.83722923337723   -4.91127e-11   6.02327e-09 DIIS
   @DF-RHF iter  15:  -921.83722923338200   -4.77485e-12   2.49758e-09 DIIS
   @DF-RHF iter  16:  -921.83722923338394   -1.93268e-12   1.02970e-09 DIIS
   @DF-RHF iter  17:  -921.83722923338337    5.68434e-13   3.73442e-10 DIIS
   @DF-RHF iter  18:  -921.83722923338416   -7.95808e-13   1.45228e-10 DIIS
   @DF-RHF iter  19:  -921.83722923338394    2.27374e-13   5.48706e-11 DIIS
  Energy and wave function converged.


  ==> Post-Iterations <==

    Orbital Energies [Eh]
    ---------------------

    Doubly Occupied:                                                      

       1A   -104.947346     2A    -11.539935     3A    -11.442331  
       4A    -11.428086     5A    -11.428049     6A    -11.425279  
       7A    -11.423147     8A    -11.423117     9A    -11.413390  
      10A    -11.411603    11A    -11.395902    12A    -11.395830  
      13A    -11.395283    14A    -10.674278    15A     -8.141923  
      16A     -8.138222    17A     -8.138177    18A     -1.363647  
      19A     -1.317131    20A     -1.259188    21A     -1.204952  
      22A     -1.201419    23A     -1.172885    24A     -1.134361  
      25A     -1.031248    26A     -1.009470    27A     -0.990569  
      28A     -0.963186    29A     -0.919269    30A     -0.863355  
      31A     -0.819761    32A     -0.803806    33A     -0.796255  
      34A     -0.794640    35A     -0.763846    36A     -0.756568  
      37A     -0.745537    38A     -0.741722    39A     -0.711706  
      40A     -0.700985    41A     -0.671421    42A     -0.661288  
      43A     -0.660874    44A     -0.656532    45A     -0.640110  
      46A     -0.636698    47A     -0.630732    48A     -0.591804  
      49A     -0.564901    50A     -0.490601    51A     -0.467634  

    Virtual:                                                              

      52A     -0.130118    53A     -0.029868    54A     -0.025740  
      55A      0.027416    56A      0.038593    57A      0.058940  
      58A      0.067688    59A      0.069934    60A      0.090731  
      61A      0.102961    62A      0.107566    63A      0.108804  
      64A      0.120882    65A      0.127586    66A      0.133270  
      67A      0.140358    68A      0.144205    69A      0.169499  
      70A      0.173158    71A      0.202885    72A      0.204014  
      73A      0.206418    74A      0.240522    75A      0.267231  
      76A      0.272683    77A      0.289903    78A      0.291281  
      79A      0.320293    80A      0.334047    81A      0.344779  
      82A      0.407754    83A      0.434683    84A      0.444535  
      85A      0.457633    86A      0.468350    87A      0.474291  
      88A      0.491132    89A      0.491755    90A      0.503153  
      91A      0.530011    92A      0.542324    93A      0.544472  
      94A      0.552684    95A      0.559241    96A      0.584004  
      97A      0.594305    98A      0.598485    99A      0.600079  
     100A      0.604130   101A      0.629699   102A      0.639449  
     103A      0.641804   104A      0.660043   105A      0.668762  
     106A      0.672173   107A      0.675416   108A      0.675581  
     109A      0.698334   110A      0.698455   111A      0.709063  
     112A      0.713555   113A      0.717541   114A      0.720896  
     115A      0.723524   116A      0.734182   117A      0.737356  
     118A      0.754827   119A      0.763813   120A      0.766579  
     121A      0.774090   122A      0.777674   123A      0.783452  
     124A      0.785550   125A      0.788176   126A      0.810164  
     127A      0.813811   128A      0.842278   129A      0.852061  
     130A      0.874246   131A      0.881634   132A      0.899470  
     133A      0.924105   134A      0.942155   135A      0.955495  
     136A      0.975856   137A      0.993435   138A      1.008553  
     139A      1.018465   140A      1.041542   141A      1.049517  
     142A      1.059953   143A      1.079426   144A      1.083250  
     145A      1.092587   146A      1.138016   147A      1.144549  
     148A      1.158151   149A      1.185260   150A      1.205939  
     151A      1.220445   152A      1.220792   153A      1.269202  
     154A      1.279333   155A      1.279843   156A      1.295018  
     157A      1.320820   158A      1.323232   159A      1.349615  
     160A      1.351189   161A      1.391609   162A      1.420965  
     163A      1.472865   164A      1.478858   165A      1.517689  
     166A      1.519591   167A      1.569730   168A      1.574578  
     169A      1.588712   170A      1.600124   171A      1.601965  
     172A      1.628387   173A      1.659421   174A      1.659576  
     175A      1.664238   176A      1.676237   177A      1.687476  
     178A      1.711295   179A      1.714241   180A      1.721857  
     181A      1.722647   182A      1.735850   183A      1.742075  
     184A      1.752555   185A      1.757611   186A      1.763674  
     187A      1.772203   188A      1.788268   189A      1.794150  
     190A      1.802971   191A      1.810302   192A      1.818236  
     193A      1.826829   194A      1.834664   195A      1.836376  
     196A      1.844277   197A      1.861970   198A      1.866590  
     199A      1.874075   200A      1.884943   201A      1.909966  
     202A      1.914859   203A      1.928530   204A      1.932610  
     205A      1.965048   206A      1.980045   207A      1.985441  
     208A      1.993964   209A      2.000592   210A      2.029467  
     211A      2.045309   212A      2.054745   213A      2.092116  
     214A      2.097221   215A      2.108686   216A      2.111045  
     217A      2.144262   218A      2.162962   219A      2.175785  
     220A      2.185898   221A      2.205480   222A      2.229091  
     223A      2.237528   224A      2.278625   225A      2.289515  
     226A      2.311341   227A      2.334417   228A      2.344743  
     229A      2.362881   230A      2.364754   231A      2.385187  
     232A      2.434916   233A      2.478357   234A      2.486390  
     235A      2.518339   236A      2.549561   237A      2.585609  
     238A      2.593263   239A      2.602566   240A      2.616841  
     241A      2.623398   242A      2.654089   243A      2.689218  
     244A      2.695844   245A      2.725461   246A      2.756272  
     247A      2.785103   248A      2.805211   249A      2.855317  
     250A      2.877657   251A      2.878433   252A      2.883098  
     253A      2.943921   254A      2.986003   255A      3.085649  
     256A      3.620774  

    Final Occupation by Irrep:
              A 
    DOCC [    51 ]

  @DF-RHF Final Energy:  -921.83722923338394

   => Energetics <=

    Nuclear Repulsion Energy =            840.1078638062308528
    One-Electron Energy =               -2912.0901907432444204
    Two-Electron Energy =                1150.1450977036295171
    Total Energy =                       -921.8372292333840505

Computation Completed


Properties will be evaluated at   0.000000,   0.000000,   0.000000 [a0]

Properties computed using the SCF density matrix

  Nuclear Dipole Moment: [e a0]
     X:    26.9112      Y:     6.9724      Z:    -8.1114

  Electronic Dipole Moment: [e a0]
     X:   -23.6945      Y:    -5.6565      Z:     6.8709

  Dipole Moment: [e a0]
     X:     3.2167      Y:     1.3159      Z:    -1.2405     Total:     3.6902

  Dipole Moment: [D]
     X:     8.1759      Y:     3.3447      Z:    -3.1530     Total:     9.3795


*** tstop() called on skystd23.palmetto.clemson.edu at Sat Oct  9 03:56:35 2021
Module time:
	user time   =      15.45 seconds =       0.26 minutes
	system time =       0.70 seconds =       0.01 minutes
	total time  =         16 seconds =       0.27 minutes
Total time:
	user time   =     197.43 seconds =       3.29 minutes
	system time =       9.27 seconds =       0.15 minutes
	total time  =        208 seconds =       3.47 minutes

*** tstart() called on skystd23.palmetto.clemson.edu
*** at Sat Oct  9 03:56:35 2021


  //>>>>>>>>>>>>>>>>>>>>>>>>>>>>>>>>>>>//
  //               DFMP2               //
  //<<<<<<<<<<<<<<<<<<<<<<<<<<<<<<<<<<<//

   => Loading Basis Set <=

    Name: (CC-PVDZ AUX)
    Role: RIFIT
    Keyword: DF_BASIS_MP2
    atoms 1-5, 12-17, 23            entry C          line   159 file /home/maxbuskirk/.conda/envs/psifour/share/psi4/basis/cc-pvdz-ri.gbs 
    atoms 6-11, 18-19, 21-22, 24-27 entry H          line    19 file /home/maxbuskirk/.conda/envs/psifour/share/psi4/basis/cc-pvdz-ri.gbs 
    atoms 20                        entry CL         line   649 file /home/maxbuskirk/.conda/envs/psifour/share/psi4/basis/cc-pvdz-ri.gbs 

	 --------------------------------------------------------
	                          DF-MP2                         
	      2nd-Order Density-Fitted Moller-Plesset Theory     
	              RMP2 Wavefunction,   1 Threads             
	                                                         
	        Rob Parrish, Justin Turney, Andy Simmonett,      
	           Ed Hohenstein, and C. David Sherrill          
	 --------------------------------------------------------

   => Auxiliary Basis Set <=

  Basis Set: (CC-PVDZ AUX)
    Blend: CC-PVDZ-RI
    Number of shells: 324
    Number of basis functions: 944
    Number of Cartesian functions: 1092
    Spherical Harmonics?: true
    Max angular momentum: 3

	 --------------------------------------------------------
	                 NBF =   256, NAUX =   944
	 --------------------------------------------------------
	   CLASS    FOCC     OCC    AOCC    AVIR     VIR    FVIR
	   PAIRS       0      51      51     205     205       0
	 --------------------------------------------------------

  DFHelper Memory: AOs need 0.577 GiB; user supplied 22.352 GiB. Using in-core AOs.


         ------------------------------------------------------------
                                     CPHF                           
                                  Rob Parrish                       
         ------------------------------------------------------------

  ==> Geometry <==

    Molecular point group: c1
    Full point group: C1

    Geometry (in Angstrom), charge = 1, multiplicity = 1:

       Center              X                  Y                   Z               Mass       
    ------------   -----------------  -----------------  -----------------  -----------------
         C            2.940002937193    -0.379414577858    -1.695411732769    12.000000000000
         C            1.306400213646     1.037484027551    -0.787095300560    12.000000000000
         C            2.129726067936     1.891270629855     0.047417304161    12.000000000000
         C            3.275602248615     0.838118871464     0.471034090829    12.000000000000
         C            3.954492972260     0.281351079168    -0.772193275540    12.000000000000
         H            4.708871352135    -0.465348752294    -0.469282801443     1.007825032230
         H            4.489875150564     1.084721923857    -1.306318071535     1.007825032230
         H            2.827094458851     0.041449203937     1.085619252858     1.007825032230
         H            3.953807736556     1.417916903212     1.116994396650     1.007825032230
         H            1.622307005278     2.248012289829     0.952319330903     1.007825032230
         H            2.634297698986     2.694952146665    -0.508165130632     1.007825032230
         C            0.108697456184     0.385117641017    -0.234891373147    12.000000000000
         C            0.121997722625    -0.845962282566     0.452516496551    12.000000000000
         C           -1.078644324970    -1.380609149697     0.939754146532    12.000000000000
         C           -2.286493534037    -0.691308241164     0.743088805643    12.000000000000
         C           -2.302688354364     0.535718747629     0.057290767310    12.000000000000
         C           -1.108284506769     1.078176965794    -0.432669820840    12.000000000000
         H           -1.130232147770     2.034576206285    -0.964616230952     1.007825032230
         H           -3.246263536620     1.066178092575    -0.092227110017     1.007825032230
         CL          -3.760900173460    -1.353772414571     1.349298829963    34.968852682000
         H           -1.076041215217    -2.333817756187     1.473868973381     1.007825032230
         H            1.052155533364    -1.395627881722     0.615012632918     1.007825032230
         C            1.796257968492     0.681428048650    -2.104771903892    12.000000000000
         H            1.051737349369     0.176676501123    -2.732834998677     1.007825032230
         H            2.306846562291     1.506825905981    -2.621702669816     1.007825032230
         H            2.469949512497    -1.257789430757    -1.226025437981     1.007825032230
         H            3.369266961912    -0.703172736852    -2.657497119277     1.007825032230

  Nuclear repulsion =  840.107863806230853
  Reference energy  = -921.837229233383937

  ==> Basis Set <==

  Basis Set: CC-PVDZ
    Blend: CC-PVDZ
    Number of shells: 122
    Number of basis functions: 256
    Number of Cartesian functions: 269
    Spherical Harmonics?: true
    Max angular momentum: 2

  ==> CGRSolver (by Rob Parrish) <==

   Number of roots    =         1
   Preconditioning    =    JACOBI
   Convergence cutoff =     1E-06
   Maximum iterations =       100

  ==> CPHFRHamiltonian (by Rob Parrish) <== 

  ==> MemDFJK: Density-Fitted J/K Matrices <==

    J tasked:                   Yes
    K tasked:                   Yes
    wK tasked:                   No
[...]
      5   C                0.01 -0.08  0.04   -0.00 -0.01  0.00   -0.00 -0.02  0.01   
      6   H               -0.46  0.45 -0.18   -0.03  0.03 -0.01   -0.11  0.11 -0.04   
      7   H                0.32  0.48 -0.32    0.03  0.05 -0.03    0.12  0.17 -0.12   
      8   H               -0.03 -0.05  0.04   -0.15 -0.26  0.20    0.25  0.44 -0.34   
      9   H               -0.13 -0.11 -0.13   -0.22 -0.19 -0.21    0.34  0.29  0.33   
     10   H                0.01 -0.00 -0.01    0.02 -0.02 -0.04   -0.04  0.03  0.07   
     11   H               -0.01 -0.01  0.01   -0.01 -0.01  0.01    0.01  0.02 -0.01   
     12   C                0.00 -0.00  0.00    0.00 -0.00 -0.00    0.00  0.00 -0.00   
     13   C                0.00 -0.00  0.00   -0.00  0.00 -0.00   -0.01  0.00 -0.00   
     14   C               -0.00  0.00 -0.00    0.00 -0.00  0.00    0.00 -0.00  0.00   
     15   C                0.00  0.00 -0.00   -0.00 -0.00 -0.00   -0.00 -0.00  0.00   
     16   C               -0.00  0.00 -0.00    0.00 -0.00 -0.00    0.00  0.00 -0.00   
     17   C               -0.00 -0.00  0.00    0.00  0.00  0.00   -0.00 -0.00 -0.00   
     18   H                0.00  0.00 -0.00   -0.00  0.00  0.00   -0.00  0.00 -0.00   
     19   H                0.00 -0.00  0.00   -0.00 -0.00 -0.00   -0.00  0.00  0.00   
     20   CL              -0.00 -0.00  0.00   -0.00  0.00  0.00   -0.00  0.00 -0.00   
     21   H               -0.00 -0.00  0.00   -0.00  0.00 -0.00   -0.00  0.01 -0.00   
     22   H               -0.01  0.00 -0.00    0.02 -0.01  0.00    0.06 -0.03  0.01   
     23   C               -0.00  0.00 -0.00    0.00  0.00  0.01    0.00  0.00  0.00   
     24   H                0.01  0.01  0.01   -0.06 -0.04 -0.05   -0.03 -0.02 -0.03   
     25   H               -0.01 -0.02  0.01    0.01  0.03 -0.01    0.01  0.01 -0.01   
     26   H               -0.04 -0.07  0.04    0.27  0.49 -0.27    0.15  0.28 -0.15   
     27   H               -0.08  0.06  0.19    0.22 -0.17 -0.50    0.11 -0.09 -0.26   

  Vibration                       76                  77                  78          
  Freq [cm^-1]                3228.4435           3231.5996           3234.0930       
  Irrep                           A                   A                   A           
  Reduced mass [u]              1.0905              1.1115              1.1128        
  Force const [mDyne/A]         6.6965              6.8392              6.8577        
  Turning point v=0 [a0]        0.1849              0.1831              0.1829        
  RMS dev v=0 [a0 u^1/2]        0.1366              0.1365              0.1364        
  Char temp [K]               4645.0114           4649.5523           4653.1398       
  ----------------------------------------------------------------------------------
      1   C                0.00  0.00 -0.00   -0.00 -0.00  0.00    0.00  0.00 -0.00   
      2   C               -0.00 -0.00  0.00    0.00  0.00  0.00    0.00  0.00 -0.00   
      3   C               -0.00 -0.00  0.00    0.04  0.01 -0.06    0.04  0.01 -0.06   
      4   C                0.00  0.00  0.00    0.00  0.00 -0.00    0.00  0.00 -0.00   
      5   C               -0.00  0.00 -0.00    0.00  0.00  0.00    0.00  0.00 -0.00   
      6   H                0.00 -0.00  0.00   -0.00 -0.00 -0.00    0.00 -0.00  0.00   
      7   H                0.00 -0.00  0.00   -0.00  0.00  0.00   -0.01 -0.01  0.01   
      8   H               -0.00 -0.00  0.00   -0.02 -0.03  0.03   -0.02 -0.03  0.02   
      9   H                0.00 -0.00 -0.00   -0.01 -0.01 -0.01   -0.01 -0.01 -0.01   
     10   H                0.01 -0.01 -0.02   -0.27  0.19  0.49   -0.25  0.18  0.46   
     11   H                0.01  0.01 -0.01   -0.19 -0.30  0.20   -0.19 -0.30  0.21   
     12   C               -0.00  0.00 -0.00   -0.00 -0.00 -0.00   -0.00  0.00 -0.00   
     13   C               -0.00  0.00 -0.00    0.00  0.00  0.00    0.00 -0.00  0.00   
     14   C                0.00 -0.00  0.00   -0.00 -0.00 -0.00   -0.00  0.00 -0.00   
     15   C               -0.00 -0.00  0.00   -0.00 -0.00 -0.00   -0.00 -0.00  0.00   
     16   C               -0.02  0.01 -0.00   -0.00  0.00  0.00   -0.00  0.00 -0.00   
     17   C                0.00 -0.07  0.04   -0.00 -0.00  0.00   -0.00 -0.00  0.00   
     18   H               -0.02  0.84 -0.47   -0.00  0.00 -0.00   -0.00  0.04 -0.02   
     19   H                0.22 -0.12  0.04    0.00 -0.00  0.00    0.01 -0.01  0.00   
     20   CL               0.00 -0.00 -0.00    0.00 -0.00 -0.00    0.00  0.00 -0.00   
     21   H               -0.00  0.03 -0.02   -0.00 -0.00 -0.00    0.00 -0.01  0.01   
     22   H                0.04 -0.02  0.01   -0.00  0.00  0.00   -0.03  0.02 -0.01   
     23   C               -0.00 -0.00 -0.00   -0.05 -0.05 -0.01    0.05  0.05  0.01   
     24   H                0.02  0.01  0.01    0.38  0.26  0.33   -0.39 -0.27 -0.33   
     25   H                0.01  0.01 -0.01    0.18  0.29 -0.19   -0.20 -0.32  0.20   
     26   H               -0.00 -0.00  0.00    0.02  0.04 -0.02   -0.02 -0.04  0.02   
     27   H                0.00  0.00  0.00    0.01 -0.00 -0.01   -0.00  0.00  0.01   

  Vibration                       79                  80                  81          
  Freq [cm^-1]                3246.5426           3260.3451           3262.8580       
  Irrep                           A                   A                   A           
  Reduced mass [u]              1.0887              1.0960              1.0974        
  Force const [mDyne/A]         6.7606              6.8643              6.8834        
  Turning point v=0 [a0]        0.1846              0.1836              0.1834        
  RMS dev v=0 [a0 u^1/2]        0.1362              0.1359              0.1358        
  Char temp [K]               4671.0519           4690.9107           4694.5261       
  ----------------------------------------------------------------------------------
      1   C                0.00  0.00 -0.00    0.00  0.00 -0.00   -0.00 -0.00  0.00   
      2   C               -0.00  0.00 -0.00   -0.00  0.00 -0.00    0.00 -0.00  0.00   
      3   C                0.00  0.00 -0.00   -0.00 -0.00  0.00   -0.00 -0.00  0.00   
      4   C                0.00  0.00 -0.00    0.00  0.00 -0.00   -0.00 -0.00  0.00   
      5   C                0.00  0.00 -0.00   -0.00  0.00 -0.00   -0.00 -0.00  0.00   
      6   H                0.00 -0.00  0.00    0.00 -0.00  0.00   -0.00  0.00 -0.00   
      7   H               -0.00 -0.01  0.00   -0.00 -0.00  0.00    0.00  0.00 -0.00   
      8   H               -0.02 -0.03  0.03   -0.00 -0.00  0.00    0.01  0.02 -0.01   
      9   H               -0.01 -0.01 -0.01   -0.00 -0.00 -0.00    0.00  0.00  0.00   
     10   H               -0.01  0.01  0.01    0.00 -0.00 -0.00    0.00 -0.00 -0.00   
     11   H               -0.01 -0.01  0.01    0.00  0.00 -0.00    0.00  0.00 -0.00   
     12   C               -0.00 -0.00  0.00    0.00 -0.00  0.00    0.00  0.00 -0.00   
     13   C               -0.06  0.04 -0.01   -0.00  0.00 -0.00    0.04 -0.02  0.01   
     14   C                0.00 -0.04  0.02    0.00  0.01 -0.00   -0.00 -0.07  0.04   
     15   C               -0.00  0.00 -0.00   -0.00 -0.00  0.00   -0.00  0.00 -0.00   
     16   C               -0.00  0.00 -0.00   -0.07  0.04 -0.01   -0.01  0.00 -0.00   
     17   C                0.00  0.00 -0.00    0.00  0.02 -0.01    0.00  0.00 -0.00   
     18   H                0.00 -0.05  0.03    0.00 -0.21  0.12    0.00 -0.03  0.01   
     19   H                0.01 -0.01  0.00    0.83 -0.47  0.13    0.08 -0.05  0.01   
     20   CL               0.00  0.00 -0.00    0.00  0.00 -0.00    0.00  0.00 -0.00   
     21   H               -0.00  0.46 -0.26    0.00 -0.08  0.05   -0.00  0.73 -0.41   
     22   H                0.72 -0.42  0.12    0.02 -0.01  0.00   -0.45  0.26 -0.08   
     23   C                0.00  0.00  0.00   -0.00 -0.00  0.00   -0.00 -0.00  0.00   
     24   H               -0.01 -0.01 -0.01    0.00  0.00  0.00    0.00  0.00  0.00   
     25   H               -0.01 -0.01  0.01    0.00  0.00 -0.00    0.00  0.00 -0.00   
     26   H               -0.02 -0.04  0.02   -0.00 -0.00  0.00    0.01  0.02 -0.01   
     27   H               -0.01  0.00  0.02    0.00 -0.00 -0.00    0.00 -0.00 -0.01   

  ==> Thermochemistry Components <==

  Entropy, S
    Electronic S            0.000 [cal/(mol K)]        0.000 [J/(mol K)]       0.00000000 [mEh/K] (multiplicity = 1)
    Translational S        41.679 [cal/(mol K)]      174.386 [J/(mol K)]       0.06641994 [mEh/K] (mol. weight = 193.0784 [u], P = 101325.00 [Pa])
    Rotational S           31.782 [cal/(mol K)]      132.975 [J/(mol K)]       0.05064769 [mEh/K] (symmetry no. = 1)
    Vibrational S          29.988 [cal/(mol K)]      125.471 [J/(mol K)]       0.04778928 [mEh/K]
  Total S                 103.449 [cal/(mol K)]      432.832 [J/(mol K)]       0.16485691 [mEh/K]
  Correction S              0.000 [cal/(mol K)]        0.000 [J/(mol K)]       0.00000000 [mEh/K]

  Constant volume heat capacity, Cv
    Electronic Cv           0.000 [cal/(mol K)]        0.000 [J/(mol K)]       0.00000000 [mEh/K]
    Translational Cv        2.981 [cal/(mol K)]       12.472 [J/(mol K)]       0.00475022 [mEh/K]
    Rotational Cv           2.981 [cal/(mol K)]       12.472 [J/(mol K)]       0.00475022 [mEh/K]
    Vibrational Cv         38.442 [cal/(mol K)]      160.842 [J/(mol K)]       0.06126142 [mEh/K]
  Total Cv                 44.404 [cal/(mol K)]      185.785 [J/(mol K)]       0.07076185 [mEh/K]
  Correction Cv             0.000 [cal/(mol K)]        0.000 [J/(mol K)]       0.00000000 [mEh/K]

  Constant pressure heat capacity, Cp
    Electronic Cp           0.000 [cal/(mol K)]        0.000 [J/(mol K)]       0.00000000 [mEh/K]
    Translational Cp        4.968 [cal/(mol K)]       20.786 [J/(mol K)]       0.00791703 [mEh/K]
    Rotational Cp           2.981 [cal/(mol K)]       12.472 [J/(mol K)]       0.00475022 [mEh/K]
    Vibrational Cp         38.442 [cal/(mol K)]      160.842 [J/(mol K)]       0.06126142 [mEh/K]
  Total Cp                 46.391 [cal/(mol K)]      194.100 [J/(mol K)]       0.07392866 [mEh/K]
  Correction Cp             0.000 [cal/(mol K)]        0.000 [J/(mol K)]       0.00000000 [mEh/K]

  ==> Thermochemistry Energy Analysis <==

  Raw electronic energy, E0
  Total E0, Electronic energy at well bottom at 0 [K]                 -923.60924914 [Eh]

  Zero-point energy, ZPE_vib = Sum_i nu_i / 2
    Electronic ZPE          0.000 [kcal/mol]        0.000 [kJ/mol]       0.00000000 [Eh]
    Translational ZPE       0.000 [kcal/mol]        0.000 [kJ/mol]       0.00000000 [Eh]
    Rotational ZPE          0.000 [kcal/mol]        0.000 [kJ/mol]       0.00000000 [Eh]
    Vibrational ZPE       144.246 [kcal/mol]      603.526 [kJ/mol]       0.22987108 [Eh]       50450.870 [cm^-1]
  Correction ZPE          144.246 [kcal/mol]      603.526 [kJ/mol]       0.22987108 [Eh]       50450.870 [cm^-1]
  Total ZPE, Electronic energy at 0 [K]                               -923.37937806 [Eh]

  Thermal Energy, E (includes ZPE)
    Electronic E            0.000 [kcal/mol]        0.000 [kJ/mol]       0.00000000 [Eh]
    Translational E         0.889 [kcal/mol]        3.718 [kJ/mol]       0.00141628 [Eh]
    Rotational E            0.889 [kcal/mol]        3.718 [kJ/mol]       0.00141628 [Eh]
    Vibrational E         149.357 [kcal/mol]      624.909 [kJ/mol]       0.23801517 [Eh]
  Correction E            151.134 [kcal/mol]      632.346 [kJ/mol]       0.24084773 [Eh]
  Total E, Electronic energy at  298.15 [K]                           -923.36840141 [Eh]

  Enthalpy, H_trans = E_trans + k_B * T
    Electronic H            0.000 [kcal/mol]        0.000 [kJ/mol]       0.00000000 [Eh]
    Translational H         1.481 [kcal/mol]        6.197 [kJ/mol]       0.00236046 [Eh]
    Rotational H            0.889 [kcal/mol]        3.718 [kJ/mol]       0.00141628 [Eh]
    Vibrational H         149.357 [kcal/mol]      624.909 [kJ/mol]       0.23801517 [Eh]
  Correction H            151.727 [kcal/mol]      634.825 [kJ/mol]       0.24179191 [Eh]
  Total H, Enthalpy at  298.15 [K]                                    -923.36745723 [Eh]

  Gibbs free energy, G = H - T * S
    Electronic G            0.000 [kcal/mol]        0.000 [kJ/mol]       0.00000000 [Eh]
    Translational G       -10.945 [kcal/mol]      -45.796 [kJ/mol]      -0.01744264 [Eh]
    Rotational G           -8.587 [kcal/mol]      -35.928 [kJ/mol]      -0.01368433 [Eh]
    Vibrational G         140.416 [kcal/mol]      587.500 [kJ/mol]       0.22376680 [Eh]
  Correction G            120.883 [kcal/mol]      505.776 [kJ/mol]       0.19263982 [Eh]
  Total G, Free enthalpy at  298.15 [K]                               -923.41660932 [Eh]


Properties will be evaluated at   0.000000,   0.000000,   0.000000 [a0]
OEProp: No title given, name of density matrix used for the following properties is 'DF-MP2 relaxed density'
  Mulliken Charges: (a.u.)
   Center  Symbol    Alpha    Beta     Spin     Total
       1     C     3.05219  3.05219  0.00000 -0.10438
       2     C     3.04853  3.04853  0.00000 -0.09706
       3     C     2.96976  2.96976  0.00000  0.06049
       4     C     3.05212  3.05212  0.00000 -0.10424
       5     C     3.03258  3.03258  0.00000 -0.06516
       6     H     0.44846  0.44846  0.00000  0.10308
       7     H     0.45919  0.45919  0.00000  0.08163
       8     H     0.45438  0.45438  0.00000  0.09124
       9     H     0.44346  0.44346  0.00000  0.11308
      10     H     0.44484  0.44484  0.00000  0.11032
      11     H     0.44609  0.44609  0.00000  0.10782
      12     C     3.03225  3.03225  0.00000 -0.06449
      13     C     3.01138  3.01138  0.00000 -0.02277
      14     C     2.94721  2.94721  0.00000  0.10558
      15     C     3.08383  3.08383  0.00000 -0.16766
      16     C     2.95231  2.95231  0.00000  0.09538
      17     C     2.98910  2.98910  0.00000  0.02180
      18     H     0.47461  0.47461  0.00000  0.05077
      19     H     0.46421  0.46421  0.00000  0.07158
      20    CL     8.49155  8.49155  0.00000  0.01690
      21     H     0.46616  0.46616  0.00000  0.06768
      22     H     0.47730  0.47730  0.00000  0.04541
      23     C     2.96980  2.96980  0.00000  0.06039
      24     H     0.44482  0.44482  0.00000  0.11037
      25     H     0.44608  0.44608  0.00000  0.10785
      26     H     0.45439  0.45439  0.00000  0.09122
      27     H     0.44342  0.44342  0.00000  0.11316

   Total alpha = 51.00000, Total beta = 51.00000, Total charge =  1.00000

    Molecular point group: c1
    Full point group: C1

    Geometry (in Angstrom), charge = 1, multiplicity = 1:

       Center              X                  Y                   Z               Mass       
    ------------   -----------------  -----------------  -----------------  -----------------
         C            2.940729029582    -0.379409089862    -1.695460555315    12.000000000000
         C            1.306346396785     1.037487004860    -0.787097816623    12.000000000000
         C            2.129690625959     1.891254331322     0.047416379718    12.000000000000
         C            3.275565283143     0.838087475447     0.470999750447    12.000000000000
         C            3.954433852296     0.281334491811    -0.772246344920    12.000000000000
         H            4.708811189259    -0.465375660880    -0.469358718295     1.007825032230
         H            4.489814122413     1.084709919576    -1.306366160151     1.007825032230
         H            2.827060621243     0.041411311681     1.085578774066     1.007825032230
         H            3.953784402442     1.417870288066     1.116959404125     1.007825032230
         H            1.622287334698     2.247985309516     0.952331460703     1.007825032230
         H            2.634260038865     2.694940997202    -0.508160621028     1.007825032230
         C            0.108646912984     0.385120581970    -0.234886831863    12.000000000000
         C            0.121948195924    -0.845970366045     0.452501273746    12.000000000000
         C           -1.078690664069    -1.380616215345     0.939747895239    12.000000000000
         C           -2.286537703094    -0.691303364736     0.743111087908    12.000000000000
         C           -2.302733546077     0.535734644026     0.057332791353    12.000000000000
         C           -1.108332868688     1.078191933176    -0.432636553357    12.000000000000
         H           -1.130281269030     2.034599789926    -0.964567440166     1.007825032230
         H           -3.246307031747     1.066203252700    -0.092162923044     1.007825032230
         CL          -3.760940356643    -1.353766413414     1.349332035430    34.968852682000
         H           -1.076086740127    -2.333833331374     1.473847530993     1.007825032230
         H            1.052104358736    -1.395645337307     0.614975137100     1.007825032230
         C            1.796182378929     0.681448397799    -2.104787207565    12.000000000000
         H            1.051648936676     0.176712268889    -2.732847492244     1.007825032230
         H            2.306769475520     1.506850745830    -2.621712281795     1.007825032230
         H            2.469872554531    -1.257787967625    -1.226081372511     1.007825032230
         H            3.369173222568    -0.703155081736    -2.657557322757     1.007825032230



  Variable Map:
  ----------------------------------------------------------------------------
  "CURRENT CORRELATION ENERGY"           =>      -1.772028256456
  "CURRENT DIPOLE X"                     =>       8.177407299219
  "CURRENT DIPOLE Y"                     =>       3.344215509204
  "CURRENT DIPOLE Z"                     =>      -3.153402797314
  "CURRENT ENERGY"                       =>    -923.609249139893
  "CURRENT REFERENCE ENERGY"             =>    -921.837220883437
  "CUSTOM SCS-MP2 CORRELATION ENERGY"    =>      -1.725033452559
  "CUSTOM SCS-MP2 TOTAL ENERGY"          =>    -923.562254335995
  "ENTHALPY"                             =>    -923.367457229778
  "ENTHALPY CORRECTION"                  =>       0.241791910114
  "GIBBS FREE ENERGY"                    =>    -923.416609317295
  "GIBBS FREE ENERGY CORRECTION"         =>       0.192639822598
  "HF TOTAL ENERGY"                      =>    -921.837220883437
  "MP2 CORRELATION ENERGY"               =>      -1.772028256456
  "MP2 DOUBLES ENERGY"                   =>      -1.772028256456
  "MP2 OPPOSITE-SPIN CORRELATION ENERGY" =>      -1.308873885084
  "MP2 SAME-SPIN CORRELATION ENERGY"     =>      -0.463154371372
  "MP2 SINGLES ENERGY"                   =>      -0.000000000000
  "MP2 TOTAL ENERGY"                     =>    -923.609249139893
  "NUCLEAR REPULSION ENERGY"             =>     840.100817597382
  "ONE-ELECTRON ENERGY"                  =>   -2912.076363779413
  "PCM POLARIZATION ENERGY"              =>       0.000000000000
  "PE ENERGY"                            =>       0.000000000000
  "SCF DIPOLE X"                         =>       8.177407299219
  "SCF DIPOLE Y"                         =>       3.344215509204
  "SCF DIPOLE Z"                         =>      -3.153402797314
  "SCF ITERATION ENERGY"                 =>    -921.837220883437
  "SCF ITERATIONS"                       =>      19.000000000000
  "SCF TOTAL ENERGY"                     =>    -921.837220883437
  "SCS-MP2 CORRELATION ENERGY"           =>      -1.725033452559
  "SCS-MP2 TOTAL ENERGY"                 =>    -923.562254335995
  "THERMAL ENERGY"                       =>    -923.368401414326
  "THERMAL ENERGY CORRECTION"            =>       0.240847725566
  "TWO-ELECTRON ENERGY"                  =>    1150.138325298593
  "ZERO K ENTHALPY"                      =>    -923.379378064479
  "ZPVE"                                 =>       0.229871075414



    Psi4 stopped on: Saturday, 09 October 2021 07:39AM
    Psi4 wall time for execution: 3:46:25.95

*** Psi4 exiting successfully. Buy a developer a beer!
