
    -----------------------------------------------------------------------
          Psi4: An Open-Source Ab Initio Electronic Structure Package
                               Psi4 1.4 release

                         Git: Rev {HEAD} 9485035 


    D. G. A. Smith, L. A. Burns, A. C. Simmonett, R. M. Parrish,
    M. C. Schieber, R. Galvelis, P. Kraus, H. Kruse, R. Di Remigio,
    A. Alenaizan, A. M. James, S. Lehtola, J. P. Misiewicz, M. Scheurer,
    R. A. Shaw, J. B. Schriber, Y. Xie, Z. L. Glick, D. A. Sirianni,
    J. S. O'Brien, J. M. Waldrop, A. Kumar, E. G. Hohenstein,
    B. P. Pritchard, B. R. Brooks, H. F. Schaefer III, A. Yu. Sokolov,
    K. Patkowski, A. E. DePrince III, U. Bozkaya, R. A. King,
    F. A. Evangelista, J. M. Turney, T. D. Crawford, C. D. Sherrill,
    J. Chem. Phys. 152(18) 184108 (2020). https://doi.org/10.1063/5.0006002

                            Additional Code Authors
    E. T. Seidl, C. L. Janssen, E. F. Valeev, M. L. Leininger,
    J. F. Gonthier, R. M. Richard, H. R. McAlexander, M. Saitow, X. Wang,
    P. Verma, and M. H. Lechner

             Previous Authors, Complete List of Code Contributors,
                       and Citations for Specific Modules
    https://github.com/psi4/psi4/blob/master/codemeta.json
    https://github.com/psi4/psi4/graphs/contributors
    http://psicode.org/psi4manual/master/introduction.html#citing-psifour

    -----------------------------------------------------------------------


    Psi4 started on: Thursday, 14 October 2021 08:39PM

    Process ID: 3112889
    Host:       skystd12.palmetto.clemson.edu
    PSIDATADIR: /home/maxbuskirk/.conda/envs/psifour/share/psi4
    Memory:     500.0 MiB
    Threads:    1
    
  ==> Input File <==

--------------------------------------------------------------------------
memory 32 GB

molecule mol {
1 1
 C    -2.874966     0.006171     1.259405
 C    -1.728706    -0.524442     1.881860
 C    -1.897922    -1.432788     2.947957
 C    -3.180189    -1.803555     3.379282
 C    -4.316803    -1.270520     2.747325
 C    -4.160783    -0.365157     1.685631
 C    -0.355130    -0.111221     1.467412
 C     0.472970     0.770684     2.420947
 C     1.736425    -0.059411     2.722336
 C     2.015823    -0.834214     1.418049
 C     0.628426    -1.099567     0.833902
 C     0.000000    -0.000000    -0.000000
 H     0.304307    -2.126282     0.639416
 H     2.566659    -1.770405     1.601511
 H     2.624553    -0.226557     0.724632
 H     1.501358    -0.784172     3.522038
 H     2.590414     0.550011     3.063525
 H    -0.098499     1.011312     3.331280
 H     0.737217     1.726550     1.933471
 H    -2.753562     0.718077     0.436601
 H    -5.041549     0.054502     1.189751
 O    -5.579329    -1.638043     3.166078
 H    -3.294311    -2.513716     4.204142
 H    -1.011830    -1.858199     3.431882
 H    -0.760870    -0.299389    -0.726353
 H     0.641316     0.832055    -0.309810
 H    -0.212209     0.892494    -0.592441
 C    -6.539131    -0.979097     2.388537
 H    -7.535429    -1.269120     2.718988
 H    -6.419074     0.097593     2.499206
 H    -6.409479    -1.253196     1.342602
}

set scf_type df
set opt_type ts
set basis cc-pVDZ
set reference rhf
set geom_maxiter 400


mol.update_geometry()
mol.symmetrize(1e-3)

e, wfn = optimize('mp2', return_wfn=True)
oeprop(wfn, "MULLIKEN_CHARGES")
mol.print_out()
print_variables()
--------------------------------------------------------------------------

  Memory set to  29.802 GiB by Python driver.

Scratch directory: /tmp/
gradient() will perform analytic gradient computation.

*** tstart() called on skystd12.palmetto.clemson.edu
*** at Thu Oct 14 20:39:11 2021

   => Loading Basis Set <=

    Name: CC-PVDZ
    Role: ORBITAL
    Keyword: BASIS
    atoms 1-12, 28            entry C          line   138 file /home/maxbuskirk/.conda/envs/psifour/share/psi4/basis/cc-pvdz.gbs 
    atoms 13-21, 23-27, 29-31 entry H          line    22 file /home/maxbuskirk/.conda/envs/psifour/share/psi4/basis/cc-pvdz.gbs 
    atoms 22                  entry O          line   198 file /home/maxbuskirk/.conda/envs/psifour/share/psi4/basis/cc-pvdz.gbs 


         ---------------------------------------------------------
                                   SCF
               by Justin Turney, Rob Parrish, Andy Simmonett
                          and Daniel G. A. Smith
                              RHF Reference
                        1 Threads,  30517 MiB Core
         ---------------------------------------------------------

  ==> Geometry <==

    Molecular point group: c1
    Full point group: C1

    Geometry (in Angstrom), charge = 1, multiplicity = 1:

       Center              X                  Y                   Z               Mass       
    ------------   -----------------  -----------------  -----------------  -----------------
         C           -1.001163909287     0.666596230279    -0.758860051619    12.000000000000
         C            0.145096090713     0.135983230279    -0.136405051619    12.000000000000
         C           -0.024119909287    -0.772362769721     0.929691948381    12.000000000000
         C           -1.306386909287    -1.143129769721     1.361016948381    12.000000000000
         C           -2.443000909287    -0.610094769721     0.729059948381    12.000000000000
         C           -2.286980909287     0.295268230279    -0.332634051619    12.000000000000
         C            1.518672090713     0.549204230279    -0.550853051619    12.000000000000
         C            2.346772090713     1.431109230279     0.402681948381    12.000000000000
         C            3.610227090713     0.601014230279     0.704070948381    12.000000000000
         C            3.889625090713    -0.173788769721    -0.600216051619    12.000000000000
         C            2.502228090713    -0.439141769721    -1.184363051619    12.000000000000
         C            1.873802090713     0.660425230279    -2.018265051619    12.000000000000
         H            2.178109090713    -1.465856769721    -1.378849051619     1.007825032230
         H            4.440461090713    -1.109979769721    -0.416754051619     1.007825032230
         H            4.498355090713     0.433868230279    -1.293633051619     1.007825032230
         H            3.375160090713    -0.123746769721     1.503772948381     1.007825032230
         H            4.464216090713     1.210436230279     1.045259948381     1.007825032230
         H            1.775303090713     1.671737230279     1.313014948381     1.007825032230
         H            2.611019090713     2.386975230279    -0.084794051619     1.007825032230
         H           -0.879759909287     1.378502230279    -1.581664051619     1.007825032230
         H           -3.167746909287     0.714927230279    -0.828514051619     1.007825032230
         O           -3.705526909287    -0.977617769721     1.147812948381    15.994914619570
         H           -1.420508909287    -1.853290769721     2.185876948381     1.007825032230
         H            0.861972090713    -1.197773769721     1.413616948381     1.007825032230
         H            1.112932090713     0.361036230279    -2.744618051619     1.007825032230
         H            2.515118090713     1.492480230279    -2.328075051619     1.007825032230
         H            1.661593090713     1.552919230279    -2.610706051619     1.007825032230
         C           -4.665328909287    -0.318671769721     0.370271948381    12.000000000000
         H           -5.661626909287    -0.608694769721     0.700722948381     1.007825032230
         H           -4.545271909287     0.758018230279     0.480940948381     1.007825032230
         H           -4.535676909287    -0.592770769721    -0.675663051619     1.007825032230

  Running in c1 symmetry.

  Rotational constants: A =      0.06791  B =      0.01113  C =      0.01041 [cm^-1]
  Rotational constants: A =   2035.93684  B =    333.63002  C =    312.04850 [MHz]
  Nuclear repulsion =  878.607857791536276

  Charge       = 1
  Multiplicity = 1
  Electrons    = 102
  Nalpha       = 51
  Nbeta        = 51

  ==> Algorithm <==

  SCF Algorithm Type is DF.
  DIIS enabled.
  MOM disabled.
  Fractional occupation disabled.
  Guess Type is SAD.
  Energy threshold   = 1.00e-10
  Density threshold  = 1.00e-10
  Integral threshold = 1.00e-12

  ==> Primary Basis <==

  Basis Set: CC-PVDZ
    Blend: CC-PVDZ
    Number of shells: 135
    Number of basis functions: 281
    Number of Cartesian functions: 295
    Spherical Harmonics?: true
    Max angular momentum: 2

   => Loading Basis Set <=

    Name: (CC-PVDZ AUX)
    Role: JKFIT
    Keyword: DF_BASIS_SCF
    atoms 1-12, 28            entry C          line   121 file /home/maxbuskirk/.conda/envs/psifour/share/psi4/basis/cc-pvdz-jkfit.gbs 
    atoms 13-21, 23-27, 29-31 entry H          line    51 file /home/maxbuskirk/.conda/envs/psifour/share/psi4/basis/cc-pvdz-jkfit.gbs 
    atoms 22                  entry O          line   221 file /home/maxbuskirk/.conda/envs/psifour/share/psi4/basis/cc-pvdz-jkfit.gbs 

  ==> Integral Setup <==

  DFHelper Memory: AOs need 0.707 GiB; user supplied 22.352 GiB. Using in-core AOs.

  ==> MemDFJK: Density-Fitted J/K Matrices <==

    J tasked:                   Yes
    K tasked:                   Yes
    wK tasked:                   No
    OpenMP threads:               1
    Memory [MiB]:             22888
    Algorithm:                 Core
    Schwarz Cutoff:           1E-12
    Mask sparsity (%):      15.7318
    Fitting Condition:        1E-10

   => Auxiliary Basis Set <=

  Basis Set: (CC-PVDZ AUX)
    Blend: CC-PVDZ-JKFIT
    Number of shells: 489
    Number of basis functions: 1371
    Number of Cartesian functions: 1559
    Spherical Harmonics?: true
    Max angular momentum: 3

  Minimum eigenvalue in the overlap matrix is 3.2800391828E-04.
  Reciprocal condition number of the overlap matrix is 4.6169410233E-05.
    Using symmetric orthogonalization.

  ==> Pre-Iterations <==

  SCF Guess: Superposition of Atomic Densities via on-the-fly atomic UHF (no occupation information).

   -------------------------
    Irrep   Nso     Nmo    
   -------------------------
     A        281     281 
   -------------------------
    Total     281     281
   -------------------------

  ==> Iterations <==

                           Total Energy        Delta E     RMS |[F,P]|

   @DF-RHF iter SAD:  -577.09316961067259   -5.77093e+02   0.00000e+00 
   @DF-RHF iter   1:  -576.37474020033335    7.18429e-01   2.20894e-03 DIIS
   @DF-RHF iter   2:  -576.61795892127179   -2.43219e-01   8.90032e-04 DIIS
   @DF-RHF iter   3:  -576.65170541843122   -3.37465e-02   2.75052e-04 DIIS
   @DF-RHF iter   4:  -576.65597300002491   -4.26758e-03   8.51061e-05 DIIS
   @DF-RHF iter   5:  -576.65632853157274   -3.55532e-04   2.51858e-05 DIIS
   @DF-RHF iter   6:  -576.65636787230903   -3.93407e-05   7.40313e-06 DIIS
   @DF-RHF iter   7:  -576.65637261846985   -4.74616e-06   2.94102e-06 DIIS
   @DF-RHF iter   8:  -576.65637343018477   -8.11715e-07   1.04704e-06 DIIS
   @DF-RHF iter   9:  -576.65637358664958   -1.56465e-07   4.75766e-07 DIIS
   @DF-RHF iter  10:  -576.65637361842312   -3.17735e-08   2.10156e-07 DIIS
   @DF-RHF iter  11:  -576.65637362790903   -9.48592e-09   9.57517e-08 DIIS
   @DF-RHF iter  12:  -576.65637362992402   -2.01499e-09   3.79869e-08 DIIS
   @DF-RHF iter  13:  -576.65637363019425   -2.70234e-10   1.36489e-08 DIIS
   @DF-RHF iter  14:  -576.65637363022495   -3.06954e-11   3.94165e-09 DIIS
   @DF-RHF iter  15:  -576.65637363022370    1.25056e-12   1.49581e-09 DIIS
   @DF-RHF iter  16:  -576.65637363022427   -5.68434e-13   6.15853e-10 DIIS
   @DF-RHF iter  17:  -576.65637363022449   -2.27374e-13   2.80446e-10 DIIS
   @DF-RHF iter  18:  -576.65637363022392    5.68434e-13   1.32976e-10 DIIS
   @DF-RHF iter  19:  -576.65637363022324    6.82121e-13   6.21218e-11 DIIS
  Energy and wave function converged.


  ==> Post-Iterations <==

    Orbital Energies [Eh]
    ---------------------

    Doubly Occupied:                                                      

       1A    -20.688758     2A    -11.490456     3A    -11.462198  
       4A    -11.438034     5A    -11.421061     6A    -11.393734  
       7A    -11.388491     8A    -11.379192     9A    -11.377948  
      10A    -11.375288    11A    -11.374406    12A    -11.372518  
      13A    -11.357893    14A    -11.355463    15A     -1.516862  
      16A     -1.405437    17A     -1.271656    18A     -1.247617  
      19A     -1.169563    20A     -1.147282    21A     -1.139579  
      22A     -1.106616    23A     -1.046173    24A     -0.967369  
      25A     -0.961696    26A     -0.949501    27A     -0.910725  
      28A     -0.873615    29A     -0.852769    30A     -0.820848  
      31A     -0.787961    32A     -0.778665    33A     -0.755883  
      34A     -0.754888    35A     -0.748658    36A     -0.739377  
      37A     -0.708307    38A     -0.691857    39A     -0.685223  
      40A     -0.668396    41A     -0.656228    42A     -0.638805  
      43A     -0.632425    44A     -0.626151    45A     -0.622540  
      46A     -0.617094    47A     -0.592164    48A     -0.581529  
      49A     -0.566153    50A     -0.458924    51A     -0.430085  

    Virtual:                                                              

      52A     -0.069789    53A     -0.024589    54A      0.002549  
      55A      0.014169    56A      0.027299    57A      0.051094  
      58A      0.075793    59A      0.077650    60A      0.093212  
      61A      0.101353    62A      0.115643    63A      0.116375  
      64A      0.123683    65A      0.134831    66A      0.145951  
      67A      0.148254    68A      0.162332    69A      0.173392  
      70A      0.182914    71A      0.186129    72A      0.191364  
      73A      0.215723    74A      0.220324    75A      0.233637  
      76A      0.239209    77A      0.263311    78A      0.267776  
      79A      0.306216    80A      0.324178    81A      0.335583  
      82A      0.348206    83A      0.360350    84A      0.374474  
      85A      0.387148    86A      0.421265    87A      0.455486  
      88A      0.467500    89A      0.483495    90A      0.496772  
      91A      0.518966    92A      0.523138    93A      0.528865  
      94A      0.536100    95A      0.537901    96A      0.544669  
      97A      0.566344    98A      0.577612    99A      0.584914  
     100A      0.595084   101A      0.601340   102A      0.605129  
     103A      0.612015   104A      0.621282   105A      0.631933  
     106A      0.638527   107A      0.659948   108A      0.667602  
     109A      0.671285   110A      0.679639   111A      0.691150  
     112A      0.697743   113A      0.703689   114A      0.712154  
     115A      0.713803   116A      0.719590   117A      0.725376  
     118A      0.746072   119A      0.748979   120A      0.753803  
     121A      0.755514   122A      0.761945   123A      0.765539  
     124A      0.775596   125A      0.782407   126A      0.787240  
     127A      0.800092   128A      0.804487   129A      0.813687  
     130A      0.830779   131A      0.836543   132A      0.840208  
     133A      0.854691   134A      0.874783   135A      0.891434  
     136A      0.915523   137A      0.937916   138A      0.978003  
     139A      0.983367   140A      1.013357   141A      1.022518  
     142A      1.034118   143A      1.041900   144A      1.051411  
     145A      1.087405   146A      1.099899   147A      1.114765  
     148A      1.118847   149A      1.136980   150A      1.143554  
     151A      1.161226   152A      1.178684   153A      1.185098  
     154A      1.213131   155A      1.226971   156A      1.248372  
     157A      1.257056   158A      1.267645   159A      1.283191  
     160A      1.296457   161A      1.305689   162A      1.329411  
     163A      1.339546   164A      1.379165   165A      1.383981  
     166A      1.396727   167A      1.438020   168A      1.443247  
     169A      1.459230   170A      1.485510   171A      1.501742  
     172A      1.505862   173A      1.533303   174A      1.550705  
     175A      1.564107   176A      1.587060   177A      1.591621  
     178A      1.612888   179A      1.628654   180A      1.633412  
     181A      1.638322   182A      1.651394   183A      1.673010  
     184A      1.678348   185A      1.696628   186A      1.699143  
     187A      1.711083   188A      1.735975   189A      1.748991  
     190A      1.755279   191A      1.763653   192A      1.768458  
     193A      1.775405   194A      1.785731   195A      1.790764  
     196A      1.796118   197A      1.800618   198A      1.819593  
     199A      1.829651   200A      1.832491   201A      1.841352  
     202A      1.845042   203A      1.856559   204A      1.865809  
     205A      1.870255   206A      1.878716   207A      1.883829  
     208A      1.892219   209A      1.905445   210A      1.915944  
     211A      1.933906   212A      1.942669   213A      1.950236  
     214A      1.955700   215A      1.976831   216A      1.977498  
     217A      1.991238   218A      2.006142   219A      2.013423  
     220A      2.038895   221A      2.056798   222A      2.074166  
     223A      2.093788   224A      2.107221   225A      2.113321  
     226A      2.125330   227A      2.128472   228A      2.133790  
     229A      2.157960   230A      2.170022   231A      2.181190  
     232A      2.192842   233A      2.209355   234A      2.230603  
     235A      2.247811   236A      2.260635   237A      2.271413  
     238A      2.285307   239A      2.297260   240A      2.302949  
     241A      2.319167   242A      2.323279   243A      2.345839  
     244A      2.381328   245A      2.407216   246A      2.424231  
     247A      2.438873   248A      2.455695   249A      2.466114  
     250A      2.515981   251A      2.534469   252A      2.559706  
     253A      2.570515   254A      2.604902   255A      2.614668  
     256A      2.622693   257A      2.631303   258A      2.644145  
     259A      2.654755   260A      2.679155   261A      2.706629  
     262A      2.721511   263A      2.740522   264A      2.757958  
     265A      2.771216   266A      2.804697   267A      2.830932  
     268A      2.839740   269A      2.871585   270A      2.909256  
     271A      2.928821   272A      2.979703   273A      3.055297  
     274A      3.115767   275A      3.122142   276A      3.190332  
     277A      3.287270   278A      3.375752   279A      3.510569  
     280A      3.652488   281A      3.883010  

    Final Occupation by Irrep:
              A 
    DOCC [    51 ]

  @DF-RHF Final Energy:  -576.65637363022324

   => Energetics <=

    Nuclear Repulsion Energy =            878.6078577915362757
    One-Electron Energy =               -2510.5203397182276603
    Two-Electron Energy =                1055.2561082964680281
    Total Energy =                       -576.6563736302232428

Computation Completed


Properties will be evaluated at   0.000000,   0.000000,   0.000000 [a0]

Properties computed using the SCF density matrix

  Nuclear Dipole Moment: [e a0]
     X:     8.6853      Y:     4.6909      Z:    -4.9631

  Electronic Dipole Moment: [e a0]
     X:    -5.8422      Y:    -3.2147      Z:     2.1132

  Dipole Moment: [e a0]
     X:     2.8431      Y:     1.4762      Z:    -2.8499     Total:     4.2877

  Dipole Moment: [D]
     X:     7.2265      Y:     3.7520      Z:    -7.2438     Total:    10.8983


*** tstop() called on skystd12.palmetto.clemson.edu at Thu Oct 14 20:39:36 2021
Module time:
	user time   =      23.43 seconds =       0.39 minutes
	system time =       0.98 seconds =       0.02 minutes
	total time  =         25 seconds =       0.42 minutes
Total time:
	user time   =      23.43 seconds =       0.39 minutes
	system time =       0.98 seconds =       0.02 minutes
	total time  =         25 seconds =       0.42 minutes

*** tstart() called on skystd12.palmetto.clemson.edu
*** at Thu Oct 14 20:39:36 2021


  //>>>>>>>>>>>>>>>>>>>>>>>>>>>>>>>>>>>//
  //               DFMP2               //
  //<<<<<<<<<<<<<<<<<<<<<<<<<<<<<<<<<<<//

   => Loading Basis Set <=

    Name: (CC-PVDZ AUX)
    Role: RIFIT
    Keyword: DF_BASIS_MP2
    atoms 1-12, 28            entry C          line   159 file /home/maxbuskirk/.conda/envs/psifour/share/psi4/basis/cc-pvdz-ri.gbs 
    atoms 13-21, 23-27, 29-31 entry H          line    19 file /home/maxbuskirk/.conda/envs/psifour/share/psi4/basis/cc-pvdz-ri.gbs 
    atoms 22                  entry O          line   235 file /home/maxbuskirk/.conda/envs/psifour/share/psi4/basis/cc-pvdz-ri.gbs 

	 --------------------------------------------------------
	                          DF-MP2                         
	      2nd-Order Density-Fitted Moller-Plesset Theory     
	              RMP2 Wavefunction,   1 Threads             
	                                                         
	        Rob Parrish, Justin Turney, Andy Simmonett,      
	           Ed Hohenstein, and C. David Sherrill          
	 --------------------------------------------------------

   => Auxiliary Basis Set <=

  Basis Set: (CC-PVDZ AUX)
    Blend: CC-PVDZ-RI
    Number of shells: 354
    Number of basis functions: 1022
    Number of Cartesian functions: 1179
    Spherical Harmonics?: true
    Max angular momentum: 3

	 --------------------------------------------------------
	                 NBF =   281, NAUX =  1022
	 --------------------------------------------------------
	   CLASS    FOCC     OCC    AOCC    AVIR     VIR    FVIR
	   PAIRS       0      51      51     230     230       0
	 --------------------------------------------------------

  DFHelper Memory: AOs need 0.707 GiB; user supplied 22.352 GiB. Using in-core AOs.


         ------------------------------------------------------------
                                     CPHF                           
                                  Rob Parrish                       
         ------------------------------------------------------------

  ==> Geometry <==

    Molecular point group: c1
    Full point group: C1

    Geometry (in Angstrom), charge = 1, multiplicity = 1:

       Center              X                  Y                   Z               Mass       
    ------------   -----------------  -----------------  -----------------  -----------------
         C           -1.001163909287     0.666596230279    -0.758860051619    12.000000000000
         C            0.145096090713     0.135983230279    -0.136405051619    12.000000000000
         C           -0.024119909287    -0.772362769721     0.929691948381    12.000000000000
         C           -1.306386909287    -1.143129769721     1.361016948381    12.000000000000
         C           -2.443000909287    -0.610094769721     0.729059948381    12.000000000000
         C           -2.286980909287     0.295268230279    -0.332634051619    12.000000000000
         C            1.518672090713     0.549204230279    -0.550853051619    12.000000000000
         C            2.346772090713     1.431109230279     0.402681948381    12.000000000000
         C            3.610227090713     0.601014230279     0.704070948381    12.000000000000
         C            3.889625090713    -0.173788769721    -0.600216051619    12.000000000000
         C            2.502228090713    -0.439141769721    -1.184363051619    12.000000000000
         C            1.873802090713     0.660425230279    -2.018265051619    12.000000000000
         H            2.178109090713    -1.465856769721    -1.378849051619     1.007825032230
         H            4.440461090713    -1.109979769721    -0.416754051619     1.007825032230
         H            4.498355090713     0.433868230279    -1.293633051619     1.007825032230
         H            3.375160090713    -0.123746769721     1.503772948381     1.007825032230
         H            4.464216090713     1.210436230279     1.045259948381     1.007825032230
         H            1.775303090713     1.671737230279     1.313014948381     1.007825032230
         H            2.611019090713     2.386975230279    -0.084794051619     1.007825032230
         H           -0.879759909287     1.378502230279    -1.581664051619     1.007825032230
         H           -3.167746909287     0.714927230279    -0.828514051619     1.007825032230
         O           -3.705526909287    -0.977617769721     1.147812948381    15.994914619570
         H           -1.420508909287    -1.853290769721     2.185876948381     1.007825032230
         H            0.861972090713    -1.197773769721     1.413616948381     1.007825032230
         H            1.112932090713     0.361036230279    -2.744618051619     1.007825032230
         H            2.515118090713     1.492480230279    -2.328075051619     1.007825032230
         H            1.661593090713     1.552919230279    -2.610706051619     1.007825032230
         C           -4.665328909287    -0.318671769721     0.370271948381    12.000000000000
         H           -5.661626909287    -0.608694769721     0.700722948381     1.007825032230
         H           -4.545271909287     0.758018230279     0.480940948381     1.007825032230
         H           -4.535676909287    -0.592770769721    -0.675663051619     1.007825032230

  Nuclear repulsion =  878.607857791536276
  Reference energy  = -576.656373630223243

  ==> Basis Set <==

  Basis Set: CC-PVDZ
    Blend: CC-PVDZ
    Number of shells: 135
    Number of basis functions: 281
    Number of Cartesian functions: 295
    Spherical Harmonics?: true
    Max angular momentum: 2

  ==> CGRSolver (by Rob Parrish) <==

   Number of roots    =         1
   Preconditioning    =    JACOBI
   Convergence cutoff =     1E-06
   Maximum iterations =       100

  ==> CPHFRHamiltonian (by Rob Parrish) <== 

  ==> MemDFJK: Density-Fitted J/K Matrices <==

    J tasked:                   Yes
    K tasked:                   Yes
    wK tasked:                   No
    OpenMP threads:               1
    Memory [MiB]:             22888
    Algorithm:                 Core
    Schwarz Cutoff:           1E-12
    Mask sparsity (%):      15.7318
    Fitting Condition:        1E-10

   => Auxiliary Basis Set <=

  Basis Set: (CC-PVDZ AUX)
    Blend: CC-PVDZ-JKFIT
    Number of shells: 489
    Number of basis functions: 1371
    Number of Cartesian functions: 1559
    Spherical Harmonics?: true
    Max angular momentum: 3

  ==> CPHF Iterations <==

  => Iterations <=

             Iter  Converged  Remaining    Residual
  CGR           1          0          1   1.188E-01
  CGR           2          0          1   2.350E-02
  CGR           3          0          1   1.193E-02
  CGR           4          0          1   4.555E-03
  CGR           5          0          1   2.430E-03
  CGR           6          0          1   1.074E-03
  CGR           7          0          1   3.891E-04
  CGR           8          0          1   1.256E-04
  CGR           9          0          1   4.128E-05
  CGR          10          0          1   1.294E-05
  CGR          11          0          1   3.886E-06
  CGR          12          0          1   1.318E-06
  CGR          13          1          0   5.400E-07

    CGRSolver converged.

  ==> DFCorrGrad: Density-Fitted Correlated Gradients <==

    OpenMP threads:              1
    Integrals threads:           1
    Memory [GiB]:           22.352
    Schwarz Cutoff:          0E+00
    Fitting Condition:       1E-10

   => Auxiliary Basis Set <=

  Basis Set: (CC-PVDZ AUX)
    Blend: CC-PVDZ-JKFIT
    Number of shells: 489
    Number of basis functions: 1371
    Number of Cartesian functions: 1559
    Spherical Harmonics?: true
    Max angular momentum: 3

	-----------------------------------------------------------
	 ==================> DF-MP2 Energies <==================== 
	-----------------------------------------------------------
	 Reference Energy          =    -576.6563736302232428 [Eh]
	 Singles Energy            =      -0.0000000000000000 [Eh]
	 Same-Spin Energy          =      -0.5191770763072944 [Eh]
	 Opposite-Spin Energy      =      -1.4710511730886779 [Eh]
	 Correlation Energy        =      -1.9902282493959724 [Eh]
	 Total Energy              =    -578.6466018796191975 [Eh]
	-----------------------------------------------------------
	 ================> DF-SCS-MP2 Energies <================== 
	-----------------------------------------------------------
	 SCS Same-Spin Scale       =       0.3333333333333333 [-]
	 SCS Opposite-Spin Scale   =       1.2000000000000000 [-]
	 SCS Same-Spin Energy      =      -0.1730590254357648 [Eh]
	 SCS Opposite-Spin Energy  =      -1.7652614077064135 [Eh]
	 SCS Correlation Energy    =      -1.9383204331421782 [Eh]
	 SCS Total Energy          =    -578.5946940633654094 [Eh]
	-----------------------------------------------------------


  -Total Gradient:
     Atom            X                  Y                   Z
    ------   -----------------  -----------------  -----------------
       1       -0.004966556935     0.003226763108    -0.002901304134
       2        0.006653372302    -0.001816074846     0.009914676413
       3        0.001410746563     0.001136958495    -0.000393161795
       4       -0.006739998487     0.003186932987    -0.003817612831
       5        0.018773416433     0.002509895377    -0.003035534043
       6       -0.008402567122    -0.008942513598     0.010323641718
       7       -0.001748752409     0.008384833252    -0.010365337367
       8       -0.005963325281    -0.002787013669     0.001760458171
       9        0.001696121859     0.001045026252    -0.001113796377
      10       -0.007720423417    -0.003977181153     0.000456424258
      11       -0.011734825876     0.001391028588    -0.025842285430
      12        0.047204091497     0.042492751601    -0.022829518911
      13        0.001778375042    -0.002691347825     0.010927595802
      14        0.002101155442    -0.000307173058     0.002425893278
      15       -0.000728046057     0.002399462431    -0.000355328956
      16       -0.000316664607    -0.000847352059     0.000286001493
      17        0.001162693012     0.001330709752     0.001301762101
      18        0.001212006391     0.000244022743     0.003395422371
      19       -0.000289249772    -0.002031077423    -0.001077323870
      20        0.003085411895    -0.001547353924     0.000672701457
      21       -0.012176732509    -0.000647776863     0.000676301357
      22       -0.032922501540     0.002955046014    -0.003695605589
      23        0.001826973491    -0.000740286250     0.000851728037
      24        0.001435094479     0.001026552751    -0.001664041884
      25        0.005407450596     0.019536069783     0.009036555157
      26       -0.070708410684    -0.015822688658     0.000989170405
      27        0.037460975742    -0.046947608800     0.021859347424
      28        0.019770793940     0.001355924976    -0.001617841731
      29        0.002712907895     0.004507148330    -0.005247741150
      30        0.005378909435    -0.009330364773    -0.000173922658
      31        0.005347558687     0.001706686458     0.009252677285


*** tstop() called on skystd12.palmetto.clemson.edu at Thu Oct 14 20:41:25 2021
Module time:
	user time   =     104.75 seconds =       1.75 minutes
	system time =       4.69 seconds =       0.08 minutes
	total time  =        109 seconds =       1.82 minutes
Total time:
	user time   =     128.18 seconds =       2.14 minutes
	system time =       5.67 seconds =       0.09 minutes
	total time  =        134 seconds =       2.23 minutes

			-----------------------------------------
			 OPTKING 2.0: for geometry optimizations 
			  - R.A. King,  Bethel University        
			-----------------------------------------

	Internal coordinates to be generated automatically.
	Detected frag 1 with atoms:  1 2 3 4 5 6 7 8 9 10 11 12 13 14 15 16 17 18 19 20
	 21 22 23 24 25 26 27 28 29 30 31
	---Fragment 1 Bond Connectivity---
	 1 : 2 6 20
	 2 : 1 3 7
	 3 : 2 4 24
	 4 : 3 5 23
	 5 : 4 6 22
	 6 : 1 5 21
	 7 : 2 8 11 12
	 8 : 7 9 18 19
	 9 : 8 10 16 17
	 10 : 9 11 14 15
	 11 : 7 10 12 13
	 12 : 7 11 25 26 27
	 13 : 11
	 14 : 10
	 15 : 10
	 16 : 9
	 17 : 9
	 18 : 8
	 19 : 8
	 20 : 1
	 21 : 6
	 22 : 5 28
	 23 : 4
	 24 : 3
	 25 : 12
	 26 : 12
	 27 : 12
	 28 : 22 29 30 31
	 29 : 28
	 30 : 28
	 31 : 28

	---Fragment 1 Geometry and Gradient---
	 C          -1.8919255952        1.2596843115       -1.4340376651
	 C           0.2741918733        0.2569710629       -0.2577681897
	 C          -0.0455800227       -1.4595541043        1.7568631635
	 C          -2.4687134724       -2.1602021906        2.5719492845
	 C          -4.6166026428       -1.1529120253        1.3777236315
	 C          -4.3217675727        0.5579760888       -0.6285872576
	 C           2.8698743258        1.0378455822       -1.0409614029
	 C           4.4347565303        2.7044045008        0.7609585981
	 C           6.8223404522        1.1357522927        1.3305012653
	 C           7.3503261522       -0.3284131785       -1.1342439537
	 C           4.7285257949       -0.8298576750       -2.2381218007
	 C           3.5409727648        1.2480228116       -3.8139681961
	 H           4.1160296528       -2.7700678339       -2.6056470759
	 H           8.3912553322       -2.0975577696       -0.7875510192
	 H           8.5006591365        0.8198921298       -2.4446121744
	 H           6.3781282010       -0.2338475037        2.8417190273
	 H           8.4361457763        2.2873929676        1.9752550324
	 H           3.3548366311        3.1591255190        2.4812386511
	 H           4.9341109898        4.5107294535       -0.1602375346
	 H          -1.6625052847        2.6049916786       -2.9889118800
	 H          -5.9861740933        1.3510166649       -1.5656646487
	 O          -7.0024310091       -1.8474298402        2.1690521157
	 H          -2.6843727973       -3.5022119856        4.1307087764
	 H           1.6288911792       -2.2634643850        2.6713488787
	 H           2.1031368477        0.6822595966       -5.1865764365
	 H           4.7528843646        2.8203788829       -4.3994242471
	 H           3.1399558734        2.9345920402       -4.9335194316
	 C          -8.8161939237       -0.6022023687        0.6997125744
	 H         -10.6989242831       -1.1502664088        1.3241744623
	 H          -8.5893190743        1.4324468533        0.9088466750
	 H          -8.5711871521       -1.1201744099       -1.2768181207
	            -0.0049665569        0.0032267631       -0.0029013041
	             0.0066533723       -0.0018160748        0.0099146764
	             0.0014107466        0.0011369585       -0.0003931618
	            -0.0067399985        0.0031869330       -0.0038176128
	             0.0187734164        0.0025098954       -0.0030355340
	            -0.0084025671       -0.0089425136        0.0103236417
	            -0.0017487524        0.0083848333       -0.0103653374
	            -0.0059633253       -0.0027870137        0.0017604582
	             0.0016961219        0.0010450263       -0.0011137964
	            -0.0077204234       -0.0039771812        0.0004564243
	            -0.0117348259        0.0013910286       -0.0258422854
	             0.0472040915        0.0424927516       -0.0228295189
	             0.0017783750       -0.0026913478        0.0109275958
	             0.0021011554       -0.0003071731        0.0024258933
	            -0.0007280461        0.0023994624       -0.0003553290
	            -0.0003166646       -0.0008473521        0.0002860015
	             0.0011626930        0.0013307098        0.0013017621
	             0.0012120064        0.0002440227        0.0033954224
	            -0.0002892498       -0.0020310774       -0.0010773239
	             0.0030854119       -0.0015473539        0.0006727015
	            -0.0121767325       -0.0006477769        0.0006763014
	            -0.0329225015        0.0029550460       -0.0036956056
	             0.0018269735       -0.0007402862        0.0008517280
	             0.0014350945        0.0010265528       -0.0016640419
	             0.0054074506        0.0195360698        0.0090365552
	            -0.0707084107       -0.0158226887        0.0009891704
	             0.0374609757       -0.0469476088        0.0218593474
	             0.0197707939        0.0013559250       -0.0016178417
	             0.0027129079        0.0045071483       -0.0052477411
	             0.0053789094       -0.0093303648       -0.0001739227
	             0.0053475587        0.0017066865        0.0092526773

	Previous optimization step data not found.  Starting new optimization.

	---Fragment 1 Intrafragment Coordinates---
	 - Coordinate -           - BOHR/RAD -       - ANG/DEG -
	 R(1,2)           =         2.661035	       1.408159
	 R(1,6)           =         2.654294	       1.404592
	 R(1,20)          =         2.068845	       1.094786
	 R(2,3)           =         2.665981	       1.410776
	 R(2,7)           =         2.821476	       1.493061
	 R(3,4)           =         2.650820	       1.402754
	 R(3,24)          =         2.070365	       1.095590
	 R(4,5)           =         2.655981	       1.405485
	 R(4,23)          =         2.068147	       1.094416
	 R(5,6)           =         2.653177	       1.404001
	 R(5,22)          =         2.607821	       1.380000
	 R(6,21)          =         2.068158	       1.094422
	 R(7,8)           =         2.910875	       1.540368
	 R(7,11)          =         2.894148	       1.531517
	 R(7,12)          =         2.860789	       1.513864
	 R(8,9)           =         2.913006	       1.541497
	 R(8,18)          =         2.081433	       1.101447
	 R(8,19)          =         2.088245	       1.105052
	 R(9,10)          =         2.915050	       1.542578
	 R(9,16)          =         2.087321	       1.104562
	 R(9,17)          =         2.084790	       1.103224
	 R(10,11)         =         2.888569	       1.528565
	 R(10,14)         =         2.081731	       1.101604
	 R(10,15)         =         2.087806	       1.104820
	 R(11,12)         =         2.865512	       1.516364
	 R(11,13)         =         2.067521	       1.094085
	 R(12,25)         =         2.066764	       1.093684
	 R(12,26)         =         2.069732	       1.095255
	 R(12,27)         =         2.063668	       1.092046
	 R(22,28)         =         2.645616	       1.400000
	 R(28,29)         =         2.057912	       1.089000
	 R(28,30)         =         2.057913	       1.089001
	 R(28,31)         =         2.057911	       1.089000
	 B(1,2,3)         =         2.070330	     118.621159
	 B(1,2,7)         =         2.119852	     121.458574
	 B(1,6,5)         =         2.096327	     120.110679
	 B(1,6,21)        =         2.091924	     119.858405
	 B(2,1,6)         =         2.107639	     120.758819
	 B(2,1,20)        =         2.079425	     119.142292
	 B(2,3,4)         =         2.108523	     120.809467
	 B(2,3,24)        =         2.079202	     119.129487
	 B(2,7,8)         =         2.072817	     118.763664
	 B(2,7,11)        =         2.125903	     121.805252
	 B(2,7,12)        =         2.100422	     120.345328
	 B(3,2,7)         =         2.092441	     119.888038
	 B(3,4,5)         =         2.095249	     120.048921
	 B(3,4,23)        =         2.092759	     119.906259
	 B(4,3,24)        =         2.095393	     120.057181
	 B(4,5,6)         =         2.088291	     119.650243
	 B(4,5,22)        =         2.097186	     120.159901
	 B(5,4,23)        =         2.095155	     120.043517
	 B(5,6,21)        =         2.094932	     120.030779
	 B(5,22,28)       =         1.910633	     109.471212
	 B(6,1,20)        =         2.096116	     120.098614
	 B(6,5,22)        =         2.097705	     120.189632
	 B(7,8,9)         =         1.826944	     104.676198
	 B(7,8,18)        =         1.936680	     110.963570
	 B(7,8,19)        =         1.929130	     110.530986
	 B(7,11,10)       =         1.888930	     108.227717
	 B(7,11,12)       =         1.039528	      59.560564
	 B(7,11,13)       =         2.081600	     119.266883
	 B(7,12,11)       =         1.059720	      60.717500
	 B(7,12,25)       =         2.049292	     117.415782
	 B(7,12,26)       =         2.057096	     117.862942
	 B(7,12,27)       =         2.141610	     122.705224
	 B(8,7,11)        =         1.854886	     106.277162
	 B(8,7,12)        =         2.017351	     115.585685
	 B(8,9,10)        =         1.827213	     104.691617
	 B(8,9,16)        =         1.897014	     108.690913
	 B(8,9,17)        =         1.979545	     113.419580
	 B(9,8,18)        =         1.962002	     112.414409
	 B(9,8,19)        =         1.934839	     110.858094
	 B(9,10,11)       =         1.819262	     104.236043
	 B(9,10,14)       =         1.956931	     112.123910
	 B(9,10,15)       =         1.932871	     110.745342
	 B(10,9,16)       =         1.897723	     108.731493
	 B(10,9,17)       =         1.980944	     113.499740
	 B(10,11,12)      =         2.049282	     117.415187
	 B(10,11,13)      =         2.094079	     119.981893
	 B(11,7,12)       =         1.042344	      59.721936
	 B(11,10,14)      =         1.949769	     111.713517
	 B(11,10,15)      =         1.934481	     110.837597
	 B(11,12,25)      =         2.043221	     117.067911
	 B(11,12,26)      =         2.053042	     117.630648
	 B(11,12,27)      =         2.902294	     166.289211
	 B(12,11,13)      =         2.048738	     117.384025
	 B(14,10,15)      =         1.871758	     107.243849
	 B(16,9,17)       =         1.878938	     107.655190
	 B(18,8,19)       =         1.875161	     107.438837
	 B(22,28,29)      =         1.910633	     109.471228
	 B(22,28,30)      =         1.910633	     109.471205
	 B(22,28,31)      =         1.910634	     109.471257
	 B(25,12,26)      =         2.012474	     115.306264
	 B(25,12,27)      =         1.295571	      74.230762
	 B(26,12,27)      =         0.849254	      48.658693
	 B(29,28,30)      =         1.910633	     109.471193
	 B(29,28,31)      =         1.910634	     109.471245
	 B(30,28,31)      =         1.910633	     109.471195
	 D(1,2,3,4)       =         0.002225	       0.127485
	 D(1,2,3,24)      =         3.131341	     179.412627
	 D(1,2,7,8)       =         1.903727	     109.075519
	 D(1,2,7,11)      =        -2.009677	    -115.146011
	 D(1,2,7,12)      =        -0.769280	     -44.076485
	 D(1,6,5,4)       =        -0.001268	      -0.072650
	 D(1,6,5,22)      =        -3.139863	    -179.900897
	 D(2,1,6,5)       =         0.004887	       0.280010
	 D(2,1,6,21)      =        -3.139052	    -179.854428
	 D(2,3,4,5)       =         0.001304	       0.074700
	 D(2,3,4,23)      =         3.135653	     179.659684
	 D(2,7,8,9)       =         2.100956	     120.375901
	 D(2,7,8,18)      =        -0.019558	      -1.120595
	 D(2,7,8,19)      =        -2.098070	    -120.210552
	 D(2,7,11,10)     =        -2.431542	    -139.317099
	 D(2,7,11,12)     =         1.903190	     109.044759
	 D(2,7,11,13)     =         0.046269	       2.651043
	 D(2,7,12,11)     =        -1.944837	    -111.430967
	 D(2,7,12,25)     =        -0.072653	      -4.162703
	 D(2,7,12,26)     =         2.457624	     140.811498
	 D(2,7,12,27)     =         1.467377	      84.074498
	 D(3,2,1,6)       =        -0.005315	      -0.304531
	 D(3,2,1,20)      =         3.132955	     179.505096
	 D(3,2,7,8)       =        -1.201325	     -68.830845
	 D(3,2,7,11)      =         1.168456	      66.947624
	 D(3,2,7,12)      =         2.408854	     138.017151
	 D(3,4,5,6)       =        -0.001796	      -0.102888
	 D(3,4,5,22)      =         3.136800	     179.725411
	 D(4,3,2,7)       =         3.108309	     178.092997
	 D(4,5,6,21)      =        -3.140510	    -179.937978
	 D(4,5,22,28)     =         3.141593	     180.000000
	 D(5,4,3,24)      =        -3.127697	    -179.203838
	 D(5,6,1,20)      =        -3.133351	    -179.527802
	 D(5,22,28,29)    =         3.141593	     180.000000
	 D(5,22,28,30)    =        -1.047198	     -60.000004
	 D(5,22,28,31)    =         1.047197	      59.999978
	 D(6,1,2,7)       =        -3.110817	    -178.236678
	 D(6,5,4,23)      =        -3.136135	    -179.687298
	 D(6,5,22,28)     =        -0.003013	      -0.172622
	 D(7,2,1,20)      =         0.027453	       1.572949
	 D(7,2,3,24)      =        -0.045760	      -2.621861
	 D(7,8,9,10)      =         0.589407	      33.770540
	 D(7,8,9,16)      =        -1.436065	     -82.280465
	 D(7,8,9,17)      =         2.757968	     158.019943
	 D(7,11,10,9)     =         0.342659	      19.632931
	 D(7,11,10,14)    =         2.459428	     140.914841
	 D(7,11,10,15)    =        -1.737450	     -99.548568
	 D(7,11,12,25)    =        -1.882068	    -107.834530
	 D(7,11,12,26)    =         1.887309	     108.134828
	 D(7,11,12,27)    =         1.891341	     108.365864
	 D(7,12,11,10)    =        -1.674893	     -95.964306
	 D(7,12,11,13)    =         1.911561	     109.524357
	 D(8,7,11,10)     =         0.019569	       1.121217
	 D(8,7,11,12)     =        -1.928884	    -110.516925
	 D(8,7,11,13)     =         2.497380	     143.089359
	 D(8,7,12,11)     =         1.651177	      94.605460
	 D(8,7,12,25)     =        -2.759824	    -158.126276
	 D(8,7,12,26)     =        -0.229547	     -13.152074
	 D(8,7,12,27)     =        -1.219794	     -69.889074
	 D(8,9,10,11)     =        -0.573602	     -32.864999
	 D(8,9,10,14)     =        -2.685602	    -153.873654
	 D(8,9,10,15)     =         1.507600	      86.379143
	 D(9,8,7,11)      =        -0.375127	     -21.493186
	 D(9,8,7,12)      =        -1.487484	     -85.226572
	 D(9,10,11,12)    =         1.468895	      84.161501
	 D(9,10,11,13)    =        -2.129570	    -122.015351
	 D(10,9,8,18)     =         2.693170	     154.307289
	 D(10,9,8,19)     =        -1.490910	     -85.422842
	 D(10,11,7,12)    =         1.948453	     111.638142
	 D(10,11,12,25)   =         2.726225	     156.201164
	 D(10,11,12,26)   =         0.212416	      12.170522
	 D(10,11,12,27)   =         0.216448	      12.401558
	 D(11,7,8,18)     =        -2.495641	    -142.989682
	 D(11,7,8,19)     =         1.709033	      97.920361
	 D(11,7,12,25)    =         1.872184	     107.268264
	 D(11,7,12,26)    =        -1.880724	    -107.757534
	 D(11,7,12,27)    =        -2.870971	    -164.494534
	 D(11,10,9,16)    =         1.451379	      83.157872
	 D(11,10,9,17)    =        -2.741271	    -157.063259
	 D(12,7,8,18)     =         2.675187	     153.276932
	 D(12,7,8,19)     =         0.596675	      34.186976
	 D(12,7,11,13)    =        -1.856921	    -106.393716
	 D(12,11,10,14)   =        -2.697521	    -154.556588
	 D(12,11,10,15)   =        -0.611214	     -35.019998
	 D(13,11,10,14)   =        -0.012801	      -0.733441
	 D(13,11,10,15)   =         2.073506	     118.803150
	 D(13,11,12,25)   =         0.029493	       1.689827
	 D(13,11,12,26)   =        -2.484316	    -142.340815
	 D(13,11,12,27)   =        -2.480284	    -142.109779
	 D(14,10,9,16)    =        -0.660621	     -37.850783
	 D(14,10,9,17)    =         1.429915	      81.928087
	 D(15,10,9,16)    =        -2.750604	    -157.597986
	 D(15,10,9,17)    =        -0.660068	     -37.819116
	 D(16,9,8,18)     =         0.667698	      38.256283
	 D(16,9,8,19)     =         2.766803	     158.526152
	 D(17,9,8,18)     =        -1.421454	     -81.443309
	 D(17,9,8,19)     =         0.677651	      38.826560
	 D(20,1,6,21)     =         0.005895	       0.337760
	 D(21,6,5,22)     =         0.004080	       0.233775
	 D(22,5,4,23)     =         0.002461	       0.141000
	 D(23,4,3,24)     =         0.006652	       0.381147

	Current energy   :      -578.6466018796

	Generating empirical Hessian (Schlegel '84) for each fragment.
	Taking PRFO optimization step.
	Maximizing along 1 lowest eigenvalue of Hessian.

 RFO min eigenvalues
 -0.072741 -0.000000 -0.000000 -0.000000 -0.000000 -0.000000 -0.000000 -0.000000
 -0.000000 -0.000000 -0.000000 -0.000000 -0.000000 -0.000000 -0.000000 -0.000000
 -0.000000 -0.000000 -0.000000 -0.000000 -0.000000 -0.000000 -0.000000 -0.000000
 -0.000000 -0.000000 -0.000000 -0.000000 -0.000000 -0.000000 -0.000000 -0.000000
 -0.000000 -0.000000 -0.000000 -0.000000 -0.000000 -0.000000 -0.000000 -0.000000
 -0.000000 -0.000000 -0.000000 -0.000000 -0.000000 -0.000000 -0.000000 -0.000000
 -0.000000 -0.000000 -0.000000 -0.000000 -0.000000 -0.000000 -0.000000 -0.000000
 -0.000000 -0.000000 -0.000000  0.000000  0.000000  0.000000  0.000000  0.000000
  0.000000  0.000000  0.000000  0.000000  0.000000  0.000000  0.000000  0.000000
  0.000000  0.000000  0.000000  0.000000  0.000000  0.000000  0.000000  0.000000
  0.000000  0.000000  0.000000  0.000000  0.000000  0.000000  0.000000  0.000000
  0.000000  0.000000  0.000000  0.000000  0.000000  0.000000  0.000000  0.000000
  0.000000  0.000000  0.000000  0.000000  0.000000  0.000000  0.000000  0.000000
  0.000000  0.000000  0.000000  0.000000  0.000000  0.000000  0.000000  0.000000
  0.003406  0.004946  0.005758  0.005870  0.007477  0.007591  0.011902  0.012454
  0.015104  0.015744  0.017009  0.017273  0.017348  0.017503  0.017564  0.017607
  0.017656  0.020543  0.027551  0.028766  0.030563  0.038250  0.043323  0.050837
  0.053974  0.058633  0.061203  0.068920  0.069850  0.070201  0.072746  0.079817
  0.083932  0.092835  0.097977  0.100364  0.100548  0.102951  0.106540  0.110782
  0.159988  0.159996  0.159999  0.160000  0.160000  0.160000  0.161458  0.168389
  0.201646  0.204970  0.220055  0.229731  0.240009  0.249825  0.249999  0.263973
  0.266931  0.276385  0.280106  0.290739  0.301725  0.331169  0.331299  0.331549
  0.331827  0.333286  0.335056  0.335232  0.341746  0.342654  0.343010  0.343072
  0.343448  0.343506  0.344175  0.349138  0.349284  0.349285  0.368537  0.407616
  0.409817  0.442502  0.445218  0.448901  0.450596  0.458154  0.491026

 RFO max eigenvalues
 -0.000000  0.000000
	Change in coordinate exceeds step limit of    0.50000.
	Scaling displacements by    0.85126
	|RFO target step|  :        0.5000000000
	RFO gradient       :       -0.1238427046
	RFO hessian        :        0.1483393202
	Projected Delta(E) :       -0.0347031498

	Back-transformation to cartesian coordinates...
	Successfully converged to displaced geometry.

	--- Internal Coordinate Step in ANG or DEG, aJ/ANG or AJ/DEG ---
	 ---------------------------------------------------------------------------
	   Coordinate                Previous        Force       Change         New 
	   ----------                --------       ------       ------       ------
	    1 R(1,2)          =      1.408159    -0.029082    -0.003359     1.404801
	    2 R(1,6)          =      1.404592    -0.005899    -0.000466     1.404126
	    3 R(1,20)         =      1.094786     0.009636     0.001268     1.096054
	    4 R(2,3)          =      1.410776    -0.016519    -0.002254     1.408522
	    5 R(2,7)          =      1.493061    -0.015139    -0.002049     1.491011
	    6 R(3,4)          =      1.402754    -0.058938    -0.006295     1.396458
	    7 R(3,24)         =      1.095590    -0.000223    -0.000029     1.095560
	    8 R(4,5)          =      1.405485     0.035385     0.004197     1.409682
	    9 R(4,23)         =      1.094416    -0.007677    -0.001009     1.093407
	   10 R(5,6)          =      1.404001     0.135492     0.014577     1.418578
	   11 R(5,22)         =      1.380000     0.008495     0.000824     1.380824
	   12 R(6,21)         =      1.094422    -0.076165    -0.010015     1.084407
	   13 R(7,8)          =      1.540368     0.018916     0.002795     1.543163
	   14 R(7,11)         =      1.531517     0.026935     0.001094     1.532611
	   15 R(7,12)         =      1.513864    -0.017376    -0.001556     1.512309
	   16 R(8,9)          =      1.541497     0.009834     0.000209     1.541706
	   17 R(8,18)         =      1.101447    -0.018379    -0.002463     1.098984
	   18 R(8,19)         =      1.105052     0.011129     0.001506     1.106558
	   19 R(9,10)         =      1.542578    -0.002838    -0.000954     1.541624
	   20 R(9,16)         =      1.104562    -0.006842    -0.000925     1.103638
	   21 R(9,17)         =      1.103224    -0.016788    -0.002261     1.100963
	   22 R(10,11)        =      1.528565     0.018737     0.003566     1.532131
	   23 R(10,14)        =      1.101604    -0.014135    -0.001895     1.099709
	   24 R(10,15)        =      1.104820    -0.009405    -0.001272     1.103548
	   25 R(11,12)        =      1.516364     0.041053     0.008986     1.525350
	   26 R(11,13)        =      1.094085    -0.000464    -0.000061     1.094024
	   27 R(12,25)        =      1.093684     0.124498     0.016338     1.110022
	   28 R(12,26)        =      1.095255     0.442442     0.058311     1.153567
	   29 R(12,27)        =      1.092046     0.473785     0.061898     1.153944
	   30 R(22,28)        =      1.400000     0.204533     0.021142     1.421142
	   31 R(28,29)        =      1.089000     0.043457     0.005630     1.094630
	   32 R(28,30)        =      1.089001     0.071261     0.009232     1.098233
	   33 R(28,31)        =      1.089000     0.071510     0.009265     1.098264
	   34 B(1,2,3)        =    118.621159     0.000086     0.231275   118.852434
	   35 B(1,2,7)        =    121.458574     0.000191     0.166747   121.625321
	   36 B(1,6,5)        =    120.110679    -0.000072    -0.008191   120.102488
	   37 B(1,6,21)       =    119.858405    -0.000592    -1.947675   117.910730
	   38 B(2,1,6)        =    120.758819     0.000174     0.155337   120.914156
	   39 B(2,1,20)       =    119.142292     0.000167     0.720673   119.862965
	   40 B(2,3,4)        =    120.809467     0.000004    -0.166141   120.643326
	   41 B(2,3,24)       =    119.129487     0.000187     0.831706   119.961193
	   42 B(2,7,8)        =    118.763664     0.000377     0.946223   119.709887
	   43 B(2,7,11)       =    121.805252    -0.000071     0.181546   121.986798
	   44 B(2,7,12)       =    120.345328    -0.000380    -1.174536   119.170791
	   45 B(3,2,7)        =    119.888038    -0.000277    -0.400412   119.487626
	   46 B(3,4,5)        =    120.048921     0.000487     0.809478   120.858399
	   47 B(3,4,23)       =    119.906259    -0.000091    -0.083375   119.822884
	   48 B(4,3,24)       =    120.057181    -0.000192    -0.664222   119.392959
	   49 B(4,5,6)        =    119.650243    -0.000680    -1.021541   118.628702
	   50 B(4,5,22)       =    120.159901    -0.003051    -6.312310   113.847591
	   51 B(5,4,23)       =    120.043517    -0.000396    -0.725623   119.317893
	   52 B(5,6,21)       =    120.030779     0.000664     1.955610   121.986389
	   53 B(5,22,28)      =    109.471212     0.006460    12.257836   121.729049
	   54 B(6,1,20)       =    120.098614    -0.000342    -0.877306   119.221308
	   55 B(6,5,22)       =    120.189632     0.003731     7.333872   127.523504
	   56 B(7,8,9)        =    104.676198     0.000034    -0.121570   104.554628
	   57 B(7,8,18)       =    110.963570    -0.000198    -0.857387   110.106183
	   58 B(7,8,19)       =    110.530986     0.000122     0.205089   110.736074
	   59 B(7,11,10)      =    108.227717     0.000148     0.658912   108.886629
	   60 B(7,11,12)      =     59.560564    -0.000189    -0.281227    59.279337
	   61 B(7,11,13)      =    119.266883    -0.000013     0.000452   119.267335
	   62 B(7,12,11)      =     60.717500     0.000056    -0.118069    60.599431
	   63 B(7,12,25)      =    117.415782     0.000067     1.414382   118.830164
	   64 B(7,12,26)      =    117.862942    -0.000222     1.108750   118.971691
	   65 B(7,12,27)      =    122.705224    -0.000165    -0.435932   122.269292
	   66 B(8,7,11)       =    106.277162    -0.000201    -0.559501   105.717661
	   67 B(8,7,12)       =    115.585685    -0.000012    -0.041710   115.543975
	   68 B(8,9,10)       =    104.691617     0.000082     0.360352   105.051969
	   69 B(8,9,16)       =    108.690913    -0.000012     0.156801   108.847714
	   70 B(8,9,17)       =    113.419580    -0.000015    -0.111838   113.307742
	   71 B(9,8,18)       =    112.414409     0.000097     0.603086   113.017496
	   72 B(9,8,19)       =    110.858094    -0.000013     0.327455   111.185548
	   73 B(9,10,11)      =    104.236043    -0.000147    -0.837551   103.398492
	   74 B(9,10,14)      =    112.123910     0.000218     0.676396   112.800306
	   75 B(9,10,15)      =    110.745342     0.000021     0.575684   111.321026
	   76 B(10,9,16)      =    108.731493     0.000032     0.315410   109.046903
	   77 B(10,9,17)      =    113.499740    -0.000097    -0.629873   112.869867
	   78 B(10,11,12)     =    117.415187     0.000158     0.531469   117.946656
	   79 B(10,11,13)     =    119.981893     0.000095     0.490194   120.472087
	   80 B(11,7,12)      =     59.721936     0.000133     0.399296    60.121232
	   81 B(11,10,14)     =    111.713517    -0.000136    -0.397576   111.315940
	   82 B(11,10,15)     =    110.837597     0.000125     0.255468   111.093065
	   83 B(11,12,25)     =    117.067911    -0.000283    -0.847431   116.220481
	   84 B(11,12,26)     =    117.630648    -0.001192    -4.430408   113.200240
	   85 B(11,12,27)     =    166.289211     0.000360     1.375557   167.664768
	   86 B(12,11,13)     =    117.384025    -0.000289    -1.529622   115.854403
	   87 B(14,10,15)     =    107.243849    -0.000074    -0.252733   106.991115
	   88 B(16,9,17)      =    107.655190     0.000014    -0.043628   107.611562
	   89 B(18,8,19)      =    107.438837    -0.000038    -0.157808   107.281029
	   90 B(22,28,29)     =    109.471228    -0.001009    -2.881135   106.590092
	   91 B(22,28,30)     =    109.471205     0.000724     2.333103   111.804309
	   92 B(22,28,31)     =    109.471257     0.000724     3.048220   112.519478
	   93 B(25,12,26)     =    115.306264     0.000962     1.232178   116.538441
	   94 B(25,12,27)     =     74.230762    -0.000024    -0.383289    73.847473
	   95 B(26,12,27)     =     48.658693     0.001552     5.845452    54.504145
	   96 B(29,28,30)     =    109.471193    -0.000189    -0.252773   109.218421
	   97 B(29,28,31)     =    109.471245    -0.000191    -1.109101   108.362144
	   98 B(30,28,31)     =    109.471195    -0.000058    -1.221172   108.250023
	   99 D(1,2,3,4)      =      0.127485    -0.000001    -0.063755     0.063731
	  100 D(1,2,3,24)     =    179.412627     0.000003     0.069787   179.482413
	  101 D(1,2,7,8)      =    109.075519    -0.000016    -0.666295   108.409224
	  102 D(1,2,7,11)     =   -115.146011     0.000001    -0.049989  -115.196000
	  103 D(1,2,7,12)     =    -44.076485    -0.000007    -0.025972   -44.102457
	  104 D(1,6,5,4)      =     -0.072650    -0.000000    -0.058911    -0.131561
	  105 D(1,6,5,22)     =   -179.900897    -0.000000    -0.055679  -179.956576
	  106 D(2,1,6,5)      =      0.280010     0.000000    -0.013233     0.266777
	  107 D(2,1,6,21)     =   -179.854428    -0.000002    -0.102392  -179.956820
	  108 D(2,3,4,5)      =      0.074700     0.000001    -0.007172     0.067527
	  109 D(2,3,4,23)     =    179.659684     0.000002     0.075468   179.735153
	  110 D(2,7,8,9)      =    120.375901     0.000007     0.372020   120.747921
	  111 D(2,7,8,18)     =     -1.120595     0.000000     0.184226    -0.936369
	  112 D(2,7,8,19)     =   -120.210552     0.000022     0.795063  -119.415488
	  113 D(2,7,11,10)    =   -139.317099    -0.000068    -1.095954  -140.413053
	  114 D(2,7,11,12)    =    109.044759    -0.000088    -1.350638   107.694121
	  115 D(2,7,11,13)    =      2.651043     0.000010     0.655909     3.306952
	  116 D(2,7,12,11)    =   -111.430967    -0.000027    -0.837968  -112.268936
	  117 D(2,7,12,25)    =     -4.162703    -0.000107    -2.517543    -6.680246
	  118 D(2,7,12,26)    =    140.811498     0.000277     5.096908   145.908406
	  119 D(2,7,12,27)    =     84.074498    -0.000123    -2.359259    81.715239
	  120 D(3,2,1,6)      =     -0.304531     0.000000     0.073648    -0.230884
	  121 D(3,2,1,20)     =    179.505096    -0.000007    -0.195459   179.309637
	  122 D(3,2,7,8)      =    -68.830845    -0.000013    -0.594823   -69.425668
	  123 D(3,2,7,11)     =     66.947624     0.000004     0.021483    66.969107
	  124 D(3,2,7,12)     =    138.017151    -0.000004     0.045499   138.062651
	  125 D(3,4,5,6)      =     -0.102888     0.000000     0.069286    -0.033601
	  126 D(3,4,5,22)     =    179.725411     0.000003     0.089251   179.814662
	  127 D(4,3,2,7)      =    178.092997    -0.000003    -0.134104   177.958893
	  128 D(4,5,6,21)     =   -179.937978     0.000002     0.039374  -179.898604
	  129 D(4,5,22,28)    =    180.000000    -0.000002    -0.061121   179.938879
	  130 D(5,4,3,24)     =   -179.203838    -0.000004    -0.150594  -179.354432
	  131 D(5,6,1,20)     =   -179.527802     0.000008     0.251151  -179.276651
	  132 D(5,22,28,29)   =    180.000000     0.000001    -0.189097   179.810903
	  133 D(5,22,28,30)   =    -60.000004    -0.000093    -0.906245   -60.906249
	  134 D(5,22,28,31)   =     59.999978     0.000094     1.167223    61.167201
	  135 D(6,1,2,7)      =   -178.236678     0.000005     0.157539  -178.079140
	  136 D(6,5,4,23)     =   -179.687298    -0.000002    -0.015586  -179.702884
	  137 D(6,5,22,28)    =     -0.172622    -0.000001    -0.056428    -0.229051
	  138 D(7,2,1,20)     =      1.572949    -0.000003    -0.111567     1.461381
	  139 D(7,2,3,24)     =     -2.621861     0.000001    -0.000563    -2.622425
	  140 D(7,8,9,10)     =     33.770540     0.000039     0.867553    34.638093
	  141 D(7,8,9,16)     =    -82.280465     0.000022     0.246621   -82.033844
	  142 D(7,8,9,17)     =    158.019943     0.000022     0.264627   158.284570
	  143 D(7,11,10,9)    =     19.632931     0.000014     0.320198    19.953129
	  144 D(7,11,10,14)   =    140.914841     0.000037     0.408463   141.323304
	  145 D(7,11,10,15)   =    -99.548568     0.000014    -0.002745   -99.551314
	  146 D(7,11,12,25)   =   -107.834530    -0.000050    -2.010055  -109.844585
	  147 D(7,11,12,26)   =    108.134828     0.000058     3.173499   111.308327
	  148 D(7,11,12,27)   =    108.365864    -0.000046    -1.396635   106.969229
	  149 D(7,12,11,10)   =    -95.964306    -0.000003    -0.407930   -96.372236
	  150 D(7,12,11,13)   =    109.524357     0.000011     0.595170   110.119526
	  151 D(8,7,11,10)    =      1.121217    -0.000003    -0.017988     1.103228
	  152 D(8,7,11,12)    =   -110.516925    -0.000023    -0.272672  -110.789597
	  153 D(8,7,11,13)    =    143.089359     0.000075     1.733875   144.823234
	  154 D(8,7,12,11)    =     94.605460    -0.000042    -0.494337    94.111123
	  155 D(8,7,12,25)    =   -158.126276    -0.000122    -2.173911  -160.300187
	  156 D(8,7,12,26)    =    -13.152074     0.000261     5.440539    -7.711535
	  157 D(8,7,12,27)    =    -69.889074    -0.000139    -2.015627   -71.904702
	  158 D(8,9,10,11)    =    -32.864999    -0.000023    -0.590420   -33.455419
	  159 D(8,9,10,14)    =   -153.873654     0.000009     0.054395  -153.819258
	  160 D(8,9,10,15)    =     86.379143    -0.000006    -0.486931    85.892212
	  161 D(9,8,7,11)     =    -21.493186    -0.000010    -0.335984   -21.829170
	  162 D(9,8,7,12)     =    -85.226572    -0.000025    -0.556975   -85.783547
	  163 D(9,10,11,12)   =     84.161501    -0.000016     0.343155    84.504657
	  164 D(9,10,11,13)   =   -122.015351    -0.000053    -1.238839  -123.254190
	  165 D(10,9,8,18)    =    154.307289     0.000001     0.078554   154.385843
	  166 D(10,9,8,19)    =    -85.422842     0.000002     0.526394   -84.896449
	  167 D(10,11,7,12)   =    111.638142     0.000020     0.254684   111.892826
	  168 D(10,11,12,25)  =    156.201164    -0.000053    -2.417985   153.783179
	  169 D(10,11,12,26)  =     12.170522     0.000055     2.765569    14.936091
	  170 D(10,11,12,27)  =     12.401558    -0.000049    -1.804565    10.596993
	  171 D(11,7,8,18)    =   -142.989682    -0.000016    -0.523778  -143.513460
	  172 D(11,7,8,19)    =     97.920361     0.000006     0.087059    98.007421
	  173 D(11,7,12,25)   =    107.268264    -0.000080    -1.679574   105.588690
	  174 D(11,7,12,26)   =   -107.757534     0.000304     5.934876  -101.822658
	  175 D(11,7,12,27)   =   -164.494534    -0.000096    -1.521290  -166.015825
	  176 D(11,10,9,16)   =     83.157872    -0.000013    -0.077887    83.079985
	  177 D(11,10,9,17)   =   -157.063259    -0.000019    -0.317627  -157.380886
	  178 D(12,7,8,18)    =    153.276932    -0.000032    -0.744769   152.532164
	  179 D(12,7,8,19)    =     34.186976    -0.000010    -0.133932    34.053044
	  180 D(12,7,11,13)   =   -106.393716     0.000098     2.006547  -104.387169
	  181 D(12,11,10,14)  =   -154.556588     0.000006     0.431420  -154.125168
	  182 D(12,11,10,15)  =    -35.019998    -0.000017     0.020212   -34.999786
	  183 D(13,11,10,14)  =     -0.733441    -0.000031    -1.150574    -1.884015
	  184 D(13,11,10,15)  =    118.803150    -0.000054    -1.561783   117.241367
	  185 D(13,11,12,25)  =      1.689827    -0.000040    -1.414885     0.274942
	  186 D(13,11,12,26)  =   -142.340815     0.000069     3.768669  -138.572146
	  187 D(13,11,12,27)  =   -142.109779    -0.000035    -0.801466  -142.911245
	  188 D(14,10,9,16)   =    -37.850783     0.000018     0.566928   -37.283854
	  189 D(14,10,9,17)   =     81.928087     0.000013     0.327188    82.255275
	  190 D(15,10,9,16)   =   -157.597986     0.000003     0.025602  -157.572384
	  191 D(15,10,9,17)   =    -37.819116    -0.000002    -0.214139   -38.033255
	  192 D(16,9,8,18)    =     38.256283    -0.000016    -0.542378    37.713906
	  193 D(16,9,8,19)    =    158.526152    -0.000014    -0.094538   158.431615
	  194 D(17,9,8,18)    =    -81.443309    -0.000016    -0.524372   -81.967681
	  195 D(17,9,8,19)    =     38.826560    -0.000014    -0.076532    38.750028
	  196 D(20,1,6,21)    =      0.337760     0.000006     0.161992     0.499752
	  197 D(21,6,5,22)    =      0.233775     0.000002     0.042607     0.276381
	  198 D(22,5,4,23)    =      0.141000     0.000001     0.004379     0.145379
	  199 D(23,4,3,24)    =      0.381147    -0.000002    -0.067953     0.313194
	 ---------------------------------------------------------------------------
	Successfully symmetrized geometry.

  ==> Convergence Check <==

  Measures of convergence in internal coordinates in au.
  Criteria marked as inactive (o), active & met (*), and active & unmet ( ).
  --------------------------------------------------------------------------------------------- ~
   Step     Total Energy     Delta E     MAX Force     RMS Force      MAX Disp      RMS Disp    ~
  --------------------------------------------------------------------------------------------- ~
    Convergence Criteria    1.00e-06 *    3.00e-04 *             o    1.20e-03 *             o  ~
  --------------------------------------------------------------------------------------------- ~
      1    -578.64660188   -5.79e+02      8.49e-02      1.05e-02 o    2.14e-01      3.15e-02 o  ~
  ---------------------------------------------------------------------------------------------

	Writing optimization data to binary file.
	Structure for next step:
	Cartesian Geometry (in Angstrom)
	    C    -0.8096901935   0.7319901711  -1.0497945840
	    C     0.1851613029   0.1960222296  -0.2152446018
	    C    -0.2042863772  -0.5588419741   0.9083411596
	    C    -1.5555167403  -0.7728056859   1.1885048594
	    C    -2.5599087656  -0.2408212396   0.3546036385
	    C    -2.1707725881   0.5192889209  -0.7781667283
	    C     1.6335816895   0.4470294406  -0.4646198691
	    C     2.4212965691   1.3810526089   0.4779608261
	    C     3.5514490588   0.4977368285   1.0430851136
	    C     3.9319960146  -0.4519352213  -0.1101324670
	    C     2.6014551731  -0.6824352937  -0.8339810181
	    C     2.1673307275   0.3436215352  -1.8758239422
	    H     2.2131330183  -1.6958977269  -0.9717784029
	    H     4.3643024849  -1.3994129479   0.2430774605
	    H     4.6748797187   0.0107157343  -0.7823640052
	    H     3.1529206144  -0.0971344310   1.8829182519
	    H     4.4084130547   1.0760441917   1.4216250715
	    H     1.7566286638   1.7792733509   1.2573206033
	    H     2.8299276836   2.2456226771  -0.0788237569
	    H    -0.5254913956   1.3315225692  -1.9222200849
	    H    -2.8975577927   0.9548629820  -1.4549209006
	    O    -3.8435003861  -0.5437301551   0.7636421410
	    H    -1.8426898849  -1.3645594698   2.0619446206
	    H     0.5565586763  -0.9923965877   1.5666706422
	    H     1.4938340842  -0.0258481738  -2.6771005139
	    H     3.0205236293   1.0474739220  -2.2034967008
	    H     2.0696993682   1.2061249342  -2.6361804360
	    C    -4.9832024393  -0.0906619309   0.0456910030
	    H    -5.8601369986  -0.4712602174   0.5789318993
	    H    -5.0314812882   1.0058204734   0.0068096803
	    H    -5.0112949080  -0.4728813950  -0.9835335385
			--------------------------
			 OPTKING Finished Execution 
			--------------------------

    Structure for next step:
    Molecular point group: c1
    Full point group: C1

    Geometry (in Angstrom), charge = 1, multiplicity = 1:

    C           -0.801630926856     0.672218901088    -1.006287760034
    C            0.193220573445     0.136250957440    -0.171737774522
    C           -0.196227108230    -0.618613249224     0.951847991337
    C           -1.547457476644    -0.832576961858     1.232011692172
    C           -2.551849505884    -0.300592513438     0.398110468008
    C           -2.162713326822     0.459517650031    -0.734659903212
    C            1.641640965719     0.387258169439    -0.421113042777
    C            2.429355848353     1.321281341435     0.521467656072
    C            3.559508342533     0.437965557609     1.086591945789
    C            3.940055299866    -0.511706495978    -0.066625639257
    C            2.609514453068    -0.742206569309    -0.790474193252
    C            2.175390005753     0.283850263625    -1.832317121438
    H            2.221192296795    -1.755669006415    -0.928271578631
    H            4.372361771826    -1.459184226337     0.286584289581
    H            4.682939006821    -0.049055538540    -0.738857180156
    H            3.160979896549    -0.156905704296     1.926425087395
    H            4.416472341825     1.016272923073     1.465131905260
    H            1.764687940436     1.719502085006     1.300827436360
    H            2.837986964504     2.185851412996    -0.035316929058
    H           -0.517432127886     1.271751301571    -1.878713264335
    H           -2.889498534281     0.895091712822    -1.411414078235
    O           -3.835441131421    -0.603501430107     0.807148972169
    H           -1.834630622368    -1.424330748023     2.105451456828
    H            0.564617948247    -1.052167864485     1.610177476487
    H            1.501893359893    -0.085619446816    -2.633593696286
    H            3.028582910931     0.987702653198    -2.159989881370
    H            2.077758646073     1.146353666093    -2.592673618228
    C           -4.975143189082    -0.150433204120     0.089197831265
    H           -5.852077751837    -0.531031492138     0.622438729733
    H           -5.023422038225     0.946049204433     0.050316508498
    H           -5.003235657887    -0.532652669703    -0.940026714238


Scratch directory: /tmp/
gradient() will perform analytic gradient computation.

*** tstart() called on skystd12.palmetto.clemson.edu
*** at Thu Oct 14 20:41:26 2021

   => Loading Basis Set <=

    Name: CC-PVDZ
    Role: ORBITAL
    Keyword: BASIS
    atoms 1-12, 28            entry C          line   138 file /home/maxbuskirk/.conda/envs/psifour/share/psi4/basis/cc-pvdz.gbs 
    atoms 13-21, 23-27, 29-31 entry H          line    22 file /home/maxbuskirk/.conda/envs/psifour/share/psi4/basis/cc-pvdz.gbs 
    atoms 22                  entry O          line   198 file /home/maxbuskirk/.conda/envs/psifour/share/psi4/basis/cc-pvdz.gbs 


         ---------------------------------------------------------
                                   SCF
               by Justin Turney, Rob Parrish, Andy Simmonett
                          and Daniel G. A. Smith
                              RHF Reference
                        1 Threads,  30517 MiB Core
         ---------------------------------------------------------

  ==> Geometry <==

    Molecular point group: c1
    Full point group: C1

    Geometry (in Angstrom), charge = 1, multiplicity = 1:

       Center              X                  Y                   Z               Mass       
    ------------   -----------------  -----------------  -----------------  -----------------
         C           -0.801630926856     0.672218901088    -1.006287760034    12.000000000000
         C            0.193220573445     0.136250957440    -0.171737774522    12.000000000000
         C           -0.196227108230    -0.618613249224     0.951847991337    12.000000000000
         C           -1.547457476644    -0.832576961858     1.232011692172    12.000000000000
         C           -2.551849505884    -0.300592513438     0.398110468008    12.000000000000
         C           -2.162713326822     0.459517650031    -0.734659903212    12.000000000000
         C            1.641640965719     0.387258169439    -0.421113042777    12.000000000000
         C            2.429355848353     1.321281341435     0.521467656072    12.000000000000
         C            3.559508342533     0.437965557609     1.086591945789    12.000000000000
         C            3.940055299866    -0.511706495978    -0.066625639257    12.000000000000
         C            2.609514453068    -0.742206569309    -0.790474193252    12.000000000000
         C            2.175390005753     0.283850263625    -1.832317121438    12.000000000000
         H            2.221192296795    -1.755669006415    -0.928271578631     1.007825032230
         H            4.372361771826    -1.459184226337     0.286584289581     1.007825032230
         H            4.682939006821    -0.049055538540    -0.738857180156     1.007825032230
         H            3.160979896549    -0.156905704296     1.926425087395     1.007825032230
         H            4.416472341825     1.016272923073     1.465131905260     1.007825032230
         H            1.764687940436     1.719502085006     1.300827436360     1.007825032230
         H            2.837986964504     2.185851412996    -0.035316929058     1.007825032230
         H           -0.517432127886     1.271751301571    -1.878713264335     1.007825032230
         H           -2.889498534281     0.895091712822    -1.411414078235     1.007825032230
         O           -3.835441131421    -0.603501430107     0.807148972169    15.994914619570
         H           -1.834630622368    -1.424330748023     2.105451456828     1.007825032230
         H            0.564617948247    -1.052167864485     1.610177476487     1.007825032230
         H            1.501893359893    -0.085619446816    -2.633593696286     1.007825032230
         H            3.028582910931     0.987702653198    -2.159989881370     1.007825032230
         H            2.077758646073     1.146353666093    -2.592673618228     1.007825032230
         C           -4.975143189082    -0.150433204120     0.089197831265    12.000000000000
         H           -5.852077751837    -0.531031492138     0.622438729733     1.007825032230
         H           -5.023422038225     0.946049204433     0.050316508498     1.007825032230
         H           -5.003235657887    -0.532652669703    -0.940026714238     1.007825032230

  Running in c1 symmetry.

  Rotational constants: A =      0.06871  B =      0.01075  C =      0.01010 [cm^-1]
  Rotational constants: A =   2059.77107  B =    322.29674  C =    302.64543 [MHz]
  Nuclear repulsion =  870.936900657693513

  Charge       = 1
  Multiplicity = 1
  Electrons    = 102
  Nalpha       = 51
  Nbeta        = 51

  ==> Algorithm <==

  SCF Algorithm Type is DF.
  DIIS enabled.
  MOM disabled.
  Fractional occupation disabled.
  Guess Type is READ.
  Energy threshold   = 1.00e-10
  Density threshold  = 1.00e-10
  Integral threshold = 1.00e-12

  ==> Primary Basis <==

  Basis Set: CC-PVDZ
    Blend: CC-PVDZ
    Number of shells: 135
    Number of basis functions: 281
    Number of Cartesian functions: 295
    Spherical Harmonics?: true
    Max angular momentum: 2

   => Loading Basis Set <=

    Name: (CC-PVDZ AUX)
    Role: JKFIT
    Keyword: DF_BASIS_SCF
    atoms 1-12, 28            entry C          line   121 file /home/maxbuskirk/.conda/envs/psifour/share/psi4/basis/cc-pvdz-jkfit.gbs 
    atoms 13-21, 23-27, 29-31 entry H          line    51 file /home/maxbuskirk/.conda/envs/psifour/share/psi4/basis/cc-pvdz-jkfit.gbs 
    atoms 22                  entry O          line   221 file /home/maxbuskirk/.conda/envs/psifour/share/psi4/basis/cc-pvdz-jkfit.gbs 

   => Loading Basis Set <=

    Name: CC-PVDZ
    Role: ORBITAL
    Keyword: BASIS
    atoms 1-12, 28            entry C          line   138 file /home/maxbuskirk/.conda/envs/psifour/share/psi4/basis/cc-pvdz.gbs 
    atoms 13-21, 23-27, 29-31 entry H          line    22 file /home/maxbuskirk/.conda/envs/psifour/share/psi4/basis/cc-pvdz.gbs 
    atoms 22                  entry O          line   198 file /home/maxbuskirk/.conda/envs/psifour/share/psi4/basis/cc-pvdz.gbs 

  Reading orbitals from file /tmp/2-2ndcornerOMe.mol.3112889.180.npy, no projection.

  ==> Integral Setup <==

  DFHelper Memory: AOs need 0.701 GiB; user supplied 22.352 GiB. Using in-core AOs.

  ==> MemDFJK: Density-Fitted J/K Matrices <==

    J tasked:                   Yes
    K tasked:                   Yes
    wK tasked:                   No
    OpenMP threads:               1
    Memory [MiB]:             22888
    Algorithm:                 Core
    Schwarz Cutoff:           1E-12
    Mask sparsity (%):      16.4664
    Fitting Condition:        1E-10

   => Auxiliary Basis Set <=

  Basis Set: (CC-PVDZ AUX)
    Blend: CC-PVDZ-JKFIT
    Number of shells: 489
    Number of basis functions: 1371
    Number of Cartesian functions: 1559
    Spherical Harmonics?: true
    Max angular momentum: 3

  Minimum eigenvalue in the overlap matrix is 3.2994972030E-04.
  Reciprocal condition number of the overlap matrix is 4.6861255937E-05.
    Using symmetric orthogonalization.

  ==> Pre-Iterations <==

  SCF Guess: Orbitals guess was supplied from a previous computation.

   -------------------------------------------------------
    Irrep   Nso     Nmo     Nalpha   Nbeta   Ndocc  Nsocc
   -------------------------------------------------------
     A        281     281      51      51      51       0
   -------------------------------------------------------
    Total     281     281      51      51      51       0
   -------------------------------------------------------

  ==> Iterations <==

                           Total Energy        Delta E     RMS |[F,P]|

   @DF-RHF iter   0:  -576.07399121150263   -5.76074e+02   2.62978e-03 
   @DF-RHF iter   1:  -576.65352705074849   -5.79536e-01   6.67190e-04 DIIS
   @DF-RHF iter   2:  -576.67473959849633   -2.12125e-02   3.54574e-04 DIIS
   @DF-RHF iter   3:  -576.68020736202448   -5.46776e-03   1.03701e-04 DIIS
   @DF-RHF iter   4:  -576.68093889067211   -7.31529e-04   3.84094e-05 DIIS
   @DF-RHF iter   5:  -576.68102555358450   -8.66629e-05   8.81365e-06 DIIS
   @DF-RHF iter   6:  -576.68103343929022   -7.88571e-06   3.69833e-06 DIIS
   @DF-RHF iter   7:  -576.68103471372876   -1.27444e-06   1.22209e-06 DIIS
   @DF-RHF iter   8:  -576.68103486115456   -1.47426e-07   3.53754e-07 DIIS
   @DF-RHF iter   9:  -576.68103487708493   -1.59304e-08   1.58248e-07 DIIS
   @DF-RHF iter  10:  -576.68103487984899   -2.76407e-09   5.88846e-08 DIIS
   @DF-RHF iter  11:  -576.68103488045540   -6.06406e-10   2.63943e-08 DIIS
   @DF-RHF iter  12:  -576.68103488058694   -1.31536e-10   1.15411e-08 DIIS
   @DF-RHF iter  13:  -576.68103488061820   -3.12639e-11   4.91294e-09 DIIS
   @DF-RHF iter  14:  -576.68103488062036   -2.16005e-12   1.88144e-09 DIIS
   @DF-RHF iter  15:  -576.68103488062195   -1.59162e-12   7.03921e-10 DIIS
   @DF-RHF iter  16:  -576.68103488062206   -1.13687e-13   2.32345e-10 DIIS
[...]
	system time =      73.00 seconds =       1.22 minutes
	total time  =       1730 seconds =      28.83 minutes

			-----------------------------------------
			 OPTKING 2.0: for geometry optimizations 
			  - R.A. King,  Bethel University        
			-----------------------------------------

	Previous internal coordinate definitions found.
	---Fragment 1 Geometry and Gradient---
	 C          -1.5999067233        1.0982288258       -1.8825398798
	 C           0.3409376358        0.2445227712       -0.2844399164
	 C          -0.2610024751       -1.3926040853        1.7420793092
	 C          -2.7495557182       -2.1615365843        2.1319578414
	 C          -4.7020886867       -1.3196182333        0.5101287670
	 C          -4.1081747958        0.3207616467       -1.5081364609
	 C           3.0251421490        1.1068397000       -0.5309721880
	 C           4.1777486822        3.1644001857        1.1923794023
	 C           6.4527430999        1.8168161532        2.4199484767
	 C           7.4584344783        0.0614595595        0.3073758792
	 C           5.0388381152       -0.6960780096       -1.0273060010
	 C           3.8541995513        1.4071667805       -3.3674395601
	 H           4.7432278525       -2.5899112112       -1.8094426394
	 H           8.4356161060       -1.6536735473        0.9761908709
	 H           8.7844722104        1.0481160622       -0.9658026268
	 H           5.7665604824        0.6384374097        4.0000355090
	 H           7.9015347638        3.1049126321        3.1718476897
	 H           2.7691201189        3.8332100191        2.5633924798
	 H           4.7858515748        4.8049945408        0.0565442213
	 H          -1.1931013637        2.4032399707       -3.4360311160
	 H          -5.5681557516        1.0117178147       -2.7917483160
	 O          -7.0305011088       -2.1944322616        1.0629123421
	 H          -3.2500108682       -3.4282230279        3.6866898489
	 H           1.2231176938       -2.0615256878        3.0243765508
	 H           3.3004358036       -0.2950009861       -4.4688315408
	 H           5.9219676318        1.6628854712       -3.7044736409
	 H           3.1767381124        2.7581168694       -4.8228208271
	 C          -9.0654129939       -1.3705099495       -0.5155141527
	 H         -10.7623099867       -2.2728959972        0.2554934660
	 H          -9.2827861645        0.7019362569       -0.4419125642
	 H          -8.7834477503       -1.9848727548       -2.4886554619
	            -0.0006887169       -0.0007274658       -0.0011923244
	             0.0001997397        0.0005179089       -0.0010388100
	            -0.0001436004        0.0002534973        0.0011310364
	             0.0007067355        0.0001400296        0.0001622043
	            -0.0002058589        0.0001924302       -0.0003294480
	             0.0002386131        0.0002523190       -0.0003767048
	             0.0046969705       -0.0057575466        0.0056813776
	            -0.0001446897       -0.0005069070       -0.0003162201
	             0.0004067194        0.0004453813       -0.0004076971
	             0.0017700755       -0.0009484234        0.0009886042
	            -0.0053822315        0.0031175495       -0.0286358131
	            -0.0189009819        0.0282478568        0.0424390861
	             0.0016439516       -0.0011670406        0.0002809548
	             0.0007721525       -0.0003563654        0.0000945497
	            -0.0001183906        0.0015172294       -0.0003881844
	            -0.0008467039       -0.0006877787        0.0002040137
	             0.0002686142        0.0001478848        0.0010115743
	            -0.0003032092        0.0006952295       -0.0002786872
	             0.0002562365        0.0001629154       -0.0005552977
	            -0.0001852248        0.0003938182       -0.0001360850
	            -0.0004032107        0.0002845535       -0.0005134221
	             0.0001316312       -0.0005221069        0.0006819477
	            -0.0000264106       -0.0003557217        0.0004768553
	             0.0003135945       -0.0002173638        0.0003269846
	             0.0014134763       -0.0024018551        0.0012777352
	             0.0034001572       -0.0042179835        0.0009069964
	             0.0116991689       -0.0187689996       -0.0209891552
	            -0.0003701527       -0.0001287184        0.0002255909
	             0.0000210745       -0.0000410631        0.0001186965
	            -0.0002108878        0.0006950218       -0.0000097196
	            -0.0000086411       -0.0002582853       -0.0008406389

	---Fragment 1 Intrafragment Coordinates---
	 - Coordinate -           - BOHR/RAD -       - ANG/DEG -
	 R(1,2)           =         2.655111	       1.405024
	 R(1,6)           =         2.652554	       1.403671
	 R(1,20)          =         2.069270	       1.095011
	 R(2,3)           =         2.673817	       1.414923
	 R(2,7)           =         2.830075	       1.497611
	 R(3,4)           =         2.633659	       1.393672
	 R(3,24)          =         2.072283	       1.096605
	 R(4,5)           =         2.674237	       1.415145
	 R(4,23)          =         2.066916	       1.093765
	 R(5,6)           =         2.667766	       1.411721
	 R(5,22)          =         2.548014	       1.348351
	 R(6,21)          =         2.063159	       1.091777
	 R(7,8)           =         2.920958	       1.545705
	 R(7,11)          =         2.748059	       1.454210
	 R(7,12)          =         2.970367	       1.571850
	 R(8,9)           =         2.915220	       1.542668
	 R(8,18)          =         2.076347	       1.098756
	 R(8,19)          =         2.086015	       1.103872
	 R(9,10)          =         2.925005	       1.547846
	 R(9,16)          =         2.087127	       1.104460
	 R(9,17)          =         2.079313	       1.100325
	 R(10,11)         =         2.865255	       1.516228
	 R(10,14)         =         2.084197	       1.102910
	 R(10,15)         =         2.086349	       1.104048
	 R(11,12)         =         3.362028	       1.779109
	 R(11,13)         =         2.070200	       1.095503
	 R(12,25)         =         2.101688	       1.112166
	 R(12,26)         =         2.110604	       1.116883
	 R(12,27)         =         2.098131	       1.110283
	 R(22,28)         =         2.703913	       1.430849
	 R(28,29)         =         2.070800	       1.095820
	 R(28,30)         =         2.085114	       1.103395
	 R(28,31)         =         2.085721	       1.103716
	 B(1,2,3)         =         2.081156	     119.241436
	 B(1,2,7)         =         2.144689	     122.881601
	 B(1,6,5)         =         2.091540	     119.836390
	 B(1,6,21)        =         2.075073	     118.892930
	 B(2,1,6)         =         2.108336	     120.798742
	 B(2,1,20)        =         2.107076	     120.726550
	 B(2,3,4)         =         2.098653	     120.243967
	 B(2,3,24)        =         2.100639	     120.357732
	 B(2,7,8)         =         2.138263	     122.513443
	 B(2,7,11)        =         2.106948	     120.719249
	 B(2,7,12)        =         1.959204	     112.254130
	 B(3,2,7)         =         2.055678	     117.781684
	 B(3,4,5)         =         2.103893	     120.544207
	 B(3,4,23)        =         2.116554	     121.269617
	 B(4,3,24)        =         2.083885	     119.397807
	 B(4,5,6)         =         2.082715	     119.330767
	 B(4,5,22)        =         2.012567	     115.311597
	 B(5,4,23)        =         2.062736	     118.186044
	 B(5,6,21)        =         2.116564	     121.270167
	 B(5,22,28)       =         2.044805	     117.158699
	 B(6,1,20)        =         2.067709	     118.471014
	 B(6,5,22)        =         2.187903	     125.357633
	 B(7,8,9)         =         1.803654	     103.341785
	 B(7,8,18)        =         1.927054	     110.412064
	 B(7,8,19)        =         1.925999	     110.351604
	 B(7,11,10)       =         1.940358	     111.174351
	 B(7,11,12)       =         0.996896	      57.117915
	 B(7,11,13)       =         2.169751	     124.317548
	 B(7,12,11)       =         0.889788	      50.981101
	 B(7,12,25)       =         1.923034	     110.181722
	 B(7,12,26)       =         2.024372	     115.987978
	 B(7,12,27)       =         2.261873	     129.595796
	 B(8,7,11)        =         1.854126	     106.233588
	 B(8,7,12)        =         1.962801	     112.460187
	 B(8,9,10)        =         1.814807	     103.980804
	 B(8,9,16)        =         1.899919	     108.857351
	 B(8,9,17)        =         1.992871	     114.183120
	 B(9,8,18)        =         1.982616	     113.595558
	 B(9,8,19)        =         1.944798	     111.428718
	 B(9,10,11)       =         1.777006	     101.814917
	 B(9,10,14)       =         2.007869	     115.042425
	 B(9,10,15)       =         1.955700	     112.053333
	 B(10,9,16)       =         1.897582	     108.723438
	 B(10,9,17)       =         1.975090	     113.164316
	 B(10,11,12)      =         2.044725	     117.154128
	 B(10,11,13)      =         2.139376	     122.577199
	 B(11,7,12)       =         1.254909	      71.900984
	 B(11,10,14)      =         1.904809	     109.137540
	 B(11,10,15)      =         1.957883	     112.178417
	 B(11,12,25)      =         1.521716	      87.187888
	 B(11,12,26)      =         1.411866	      80.893959
	 B(11,12,27)      =         3.106822	     178.007763
	 B(12,11,13)      =         1.832789	     105.011085
	 B(14,10,15)      =         1.861892	     106.678550
	 B(16,9,17)       =         1.880807	     107.762311
	 B(18,8,19)       =         1.879655	     107.696310
	 B(22,28,29)      =         1.840622	     105.459897
	 B(22,28,30)      =         1.939830	     111.144068
	 B(22,28,31)      =         1.939870	     111.146353
	 B(25,12,26)      =         1.846871	     105.817924
	 B(25,12,27)      =         1.643757	      94.180359
	 B(26,12,27)      =         1.698700	      97.328354
	 B(29,28,30)      =         1.911924	     109.545190
	 B(29,28,31)      =         1.912028	     109.551114
	 B(30,28,31)      =         1.917983	     109.892329
	 D(1,2,3,4)       =         0.008472	       0.485421
	 D(1,2,3,24)      =        -3.128629	    -179.257248
	 D(1,2,7,8)       =         1.748609	     100.187926
	 D(1,2,7,11)      =        -2.093709	    -119.960706
	 D(1,2,7,12)      =        -0.670753	     -38.431316
	 D(1,6,5,4)       =        -0.001071	      -0.061365
	 D(1,6,5,22)      =         3.140913	     179.961074
	 D(2,1,6,5)       =         0.010564	       0.605293
	 D(2,1,6,21)      =        -3.135513	    -179.651666
	 D(2,3,4,5)       =         0.000872	       0.049944
	 D(2,3,4,23)      =         3.140117	     179.915438
	 D(2,7,8,9)       =         2.134767	     122.313141
	 D(2,7,8,18)      =         0.008670	       0.496774
	 D(2,7,8,19)      =        -2.067312	    -118.448257
	 D(2,7,11,10)     =        -2.530150	    -144.966919
	 D(2,7,11,12)     =         1.843416	     105.619941
	 D(2,7,11,13)     =         0.340544	      19.511723
	 D(2,7,12,11)     =        -2.034136	    -116.547384
	 D(2,7,12,25)     =        -0.837109	     -47.962790
	 D(2,7,12,26)     =        -2.934113	    -168.112292
	 D(2,7,12,27)     =         1.150472	      65.917163
	 D(3,2,1,6)       =        -0.014230	      -0.815301
	 D(3,2,1,20)      =         3.114974	     178.474857
	 D(3,2,7,8)       =        -1.330491	     -76.231508
	 D(3,2,7,11)      =         1.110376	      63.619860
	 D(3,2,7,12)      =         2.533332	     145.149250
	 D(3,4,5,6)       =        -0.004599	      -0.263500
	 D(3,4,5,22)      =         3.136640	     179.716256
	 D(4,3,2,7)       =         3.089922	     177.039511
	 D(4,5,6,21)      =        -3.138070	    -179.798155
	 D(4,5,22,28)     =         3.131445	     179.418584
	 D(5,4,3,24)      =         3.138016	     179.795078
	 D(5,6,1,20)      =        -3.118913	    -178.700566
	 D(5,22,28,29)    =        -3.134205	    -179.576722
	 D(5,22,28,30)    =        -1.063746	     -60.948163
	 D(5,22,28,31)    =         1.078377	      61.786442
	 D(6,1,2,7)       =        -3.092458	    -177.184767
	 D(6,5,4,23)      =         3.139270	     179.866934
	 D(6,5,22,28)     =        -0.010525	      -0.603057
	 D(7,2,1,20)      =         0.036746	       2.105392
	 D(7,2,3,24)      =        -0.047179	      -2.703158
	 D(7,8,9,10)      =         0.619127	      35.473378
	 D(7,8,9,16)      =        -1.401260	     -80.286299
	 D(7,8,9,17)      =         2.779706	     159.265439
	 D(7,11,10,9)     =         0.372697	      21.353940
	 D(7,11,10,14)    =         2.502493	     143.382261
	 D(7,11,10,15)    =        -1.721143	     -98.614247
	 D(7,11,12,25)    =        -2.076460	    -118.972382
	 D(7,11,12,26)    =         2.347688	     134.512620
	 D(7,11,12,27)    =         1.878146	     107.609837
	 D(7,12,11,10)    =        -1.723186	     -98.731289
	 D(7,12,11,13)    =         2.119630	     121.445842
	 D(8,7,11,10)     =         0.009442	       0.540984
	 D(8,7,11,12)     =        -1.900178	    -108.872156
	 D(8,7,11,13)     =         2.880136	     165.019627
	 D(8,7,12,11)     =         1.754970	     100.552394
	 D(8,7,12,25)     =         2.951997	     169.136987
	 D(8,7,12,26)     =         0.854993	      48.987485
	 D(8,7,12,27)     =        -1.343608	     -76.983059
	 D(8,9,10,11)     =        -0.602813	     -34.538649
	 D(8,9,10,14)     =        -2.659977	    -152.405427
	 D(8,9,10,15)     =         1.492563	      85.517538
	 D(9,8,7,11)      =        -0.391388	     -22.424857
	 D(9,8,7,12)      =        -1.730361	     -99.142381
	 D(9,10,11,12)    =         1.470384	      84.246770
	 D(9,10,11,13)    =        -2.503511	    -143.440593
	 D(10,9,8,18)     =         2.707455	     155.125756
	 D(10,9,8,19)     =        -1.448963	     -83.019456
	 D(10,11,7,12)    =         1.909620	     109.413140
	 D(10,11,12,25)   =         2.483539	     142.296328
	 D(10,11,12,26)   =         0.624502	      35.781331
	 D(10,11,12,27)   =         0.154960	       8.878547
	 D(11,7,8,18)     =        -2.517484	    -144.241225
	 D(11,7,8,19)     =         1.689719	      96.813744
	 D(11,7,12,25)    =         1.197027	      68.584594
	 D(11,7,12,26)    =        -0.899977	     -51.564908
	 D(11,7,12,27)    =        -3.098578	    -177.535453
	 D(11,10,9,16)    =         1.419219	      81.315250
	 D(11,10,9,17)    =        -2.774897	    -158.989907
	 D(12,7,8,18)     =         2.426728	     139.041251
	 D(12,7,8,19)     =         0.350745	      20.096220
	 D(12,7,11,13)    =        -1.502872	     -86.108218
	 D(12,11,10,14)   =        -2.683006	    -153.724909
	 D(12,11,10,15)   =        -0.623456	     -35.721417
	 D(13,11,10,14)   =        -0.373715	     -21.412272
	 D(13,11,10,15)   =         1.685835	      96.591220
	 D(13,11,12,25)   =         0.043170	       2.473460
	 D(13,11,12,26)   =        -1.815867	    -104.041537
	 D(13,11,12,27)   =        -2.285410	    -130.944321
	 D(14,10,9,16)    =        -0.637945	     -36.551528
	 D(14,10,9,17)    =         1.451125	      83.143316
	 D(15,10,9,16)    =        -2.768591	    -158.628563
	 D(15,10,9,17)    =        -0.679522	     -38.933719
	 D(16,9,8,18)     =         0.687068	      39.366079
	 D(16,9,8,19)     =         2.813835	     161.220868
	 D(17,9,8,18)     =        -1.415151	     -81.082184
	 D(17,9,8,19)     =         0.711616	      40.772605
	 D(20,1,6,21)     =         0.018195	       1.042475
	 D(21,6,5,22)     =         0.003914	       0.224284
	 D(22,5,4,23)     =        -0.002676	      -0.153310
	 D(23,4,3,24)     =        -0.005924	      -0.339427

	Current energy   :      -578.7203431607

	Energy change for the previous step:
		Projected    :        -0.0032586556
		Actual       :        -0.0039323816

	Performing Bofill update.
	Previous computed or guess Hessian on step 1.
	Steps to be used in Hessian update: 12 11
	Taking PRFO optimization step.
	Maximizing along 1 lowest eigenvalue of Hessian.

 RFO min eigenvalues
 -0.003015 -0.000000 -0.000000 -0.000000 -0.000000 -0.000000 -0.000000 -0.000000
 -0.000000 -0.000000 -0.000000 -0.000000 -0.000000 -0.000000 -0.000000 -0.000000
 -0.000000 -0.000000 -0.000000 -0.000000 -0.000000 -0.000000 -0.000000 -0.000000
 -0.000000 -0.000000 -0.000000 -0.000000 -0.000000 -0.000000 -0.000000 -0.000000
 -0.000000 -0.000000 -0.000000 -0.000000 -0.000000 -0.000000 -0.000000 -0.000000
 -0.000000 -0.000000 -0.000000 -0.000000 -0.000000 -0.000000 -0.000000 -0.000000
 -0.000000 -0.000000 -0.000000 -0.000000 -0.000000 -0.000000 -0.000000 -0.000000
 -0.000000 -0.000000 -0.000000 -0.000000  0.000000  0.000000  0.000000  0.000000
  0.000000  0.000000  0.000000  0.000000  0.000000  0.000000  0.000000  0.000000
  0.000000  0.000000  0.000000  0.000000  0.000000  0.000000  0.000000  0.000000
  0.000000  0.000000  0.000000  0.000000  0.000000  0.000000  0.000000  0.000000
  0.000000  0.000000  0.000000  0.000000  0.000000  0.000000  0.000000  0.000000
  0.000000  0.000000  0.000000  0.000000  0.000000  0.000000  0.000000  0.000000
  0.000000  0.000000  0.000000  0.000000  0.000000  0.000000  0.000000  0.000000
  0.000000  0.003758  0.004951  0.005591  0.007597  0.008375  0.012433  0.013149
  0.015078  0.015647  0.016996  0.017271  0.017351  0.017493  0.017535  0.017603
  0.017655  0.018488  0.021773  0.027614  0.029090  0.035573  0.042685  0.049757
  0.053936  0.057646  0.061074  0.061893  0.068906  0.069760  0.070218  0.078320
  0.082560  0.089570  0.093143  0.097527  0.100339  0.101300  0.104314  0.110633
  0.159185  0.159859  0.159927  0.159969  0.159981  0.160265  0.161242  0.166268
  0.200903  0.203736  0.219998  0.229931  0.240151  0.249728  0.249886  0.263758
  0.266265  0.276285  0.290565  0.299698  0.330821  0.331277  0.331353  0.331565
  0.331843  0.333294  0.335057  0.335230  0.341746  0.342095  0.342654  0.343076
  0.343457  0.343729  0.344573  0.349139  0.349270  0.349286  0.388211  0.408172
  0.421742  0.442950  0.445203  0.450254  0.452551  0.459726  0.574679

 RFO max eigenvalues
 -0.015179  0.000169
	Change in coordinate exceeds step limit of    0.50000.
	Scaling displacements by    0.90667
	|RFO target step|  :        0.5000000000
	RFO gradient       :       -0.0051607247
	RFO hessian        :        0.0064596402
	Projected Delta(E) :       -0.0014183258

	Back-transformation to cartesian coordinates...
	The INTCO_EXCEPTion handler:
	TORS::compute_val: unable to compute torsion value
	Dynamic level is 0.
	exc.g_really_quit() is 0.

  **** Optimization has failed! (in 13 steps) ****
			--------------------------
			 OPTKING Finished Execution 
			--------------------------
	Removing binary optimization data file.
	Cleaning optimization helper files.

PsiException: Could not converge geometry optimization in 12 iterations.


Traceback (most recent call last):
  File "/home/maxbuskirk/.conda/envs/psifour/bin/psi4", line 333, in <module>
    exec(content)
  File "<string>", line 62, in <module>
  File "/home/maxbuskirk/.conda/envs/psifour/lib//python3.9/site-packages/psi4/driver/driver.py", line 1433, in optimize
    raise OptimizationConvergenceError("""geometry optimization""", n - 1, wfn)

psi4.driver.p4util.exceptions.OptimizationConvergenceError: Could not converge geometry optimization in 12 iterations.


Printing out the relevant lines from the Psithon --> Python processed input file:
    core.set_global_option("BASIS", "cc-pVDZ")
    core.set_global_option("REFERENCE", "rhf")
    core.set_global_option("GEOM_MAXITER", 400)
    mol.update_geometry()
    mol.symmetrize(1e-3)
--> e, wfn = optimize('mp2', return_wfn=True)
    oeprop(wfn, "MULLIKEN_CHARGES")
    mol.print_out()
    print_variables()

!-------------------------------------------------------------!
!                                                             !
!  Could not converge geometry optimization in 12 iterations. !
!                                                             !
!-------------------------------------------------------------!

    Psi4 stopped on: Thursday, 14 October 2021 09:08PM
    Psi4 wall time for execution: 0:28:50.01

*** Psi4 encountered an error. Buy a developer more coffee!
*** Resources and help at github.com/psi4/psi4.
