
    -----------------------------------------------------------------------
          Psi4: An Open-Source Ab Initio Electronic Structure Package
                               Psi4 1.4 release

                         Git: Rev {HEAD} 9485035 


    D. G. A. Smith, L. A. Burns, A. C. Simmonett, R. M. Parrish,
    M. C. Schieber, R. Galvelis, P. Kraus, H. Kruse, R. Di Remigio,
    A. Alenaizan, A. M. James, S. Lehtola, J. P. Misiewicz, M. Scheurer,
    R. A. Shaw, J. B. Schriber, Y. Xie, Z. L. Glick, D. A. Sirianni,
    J. S. O'Brien, J. M. Waldrop, A. Kumar, E. G. Hohenstein,
    B. P. Pritchard, B. R. Brooks, H. F. Schaefer III, A. Yu. Sokolov,
    K. Patkowski, A. E. DePrince III, U. Bozkaya, R. A. King,
    F. A. Evangelista, J. M. Turney, T. D. Crawford, C. D. Sherrill,
    J. Chem. Phys. 152(18) 184108 (2020). https://doi.org/10.1063/5.0006002

                            Additional Code Authors
    E. T. Seidl, C. L. Janssen, E. F. Valeev, M. L. Leininger,
    J. F. Gonthier, R. M. Richard, H. R. McAlexander, M. Saitow, X. Wang,
    P. Verma, and M. H. Lechner

             Previous Authors, Complete List of Code Contributors,
                       and Citations for Specific Modules
    https://github.com/psi4/psi4/blob/master/codemeta.json
    https://github.com/psi4/psi4/graphs/contributors
    http://psicode.org/psi4manual/master/introduction.html#citing-psifour

    -----------------------------------------------------------------------


    Psi4 started on: Thursday, 14 October 2021 08:39PM

    Process ID: 157769
    Host:       skystd11.palmetto.clemson.edu
    PSIDATADIR: /home/maxbuskirk/.conda/envs/psifour/share/psi4
    Memory:     500.0 MiB
    Threads:    1
    
  ==> Input File <==

--------------------------------------------------------------------------
memory 32 GB

molecule mol {
1 1
 C    -2.874966     0.006171     1.259405
 C    -1.728706    -0.524442     1.881860
 C    -1.897922    -1.432788     2.947957
 C    -3.180189    -1.803555     3.379282
 C    -4.316803    -1.270520     2.747325
 C    -4.160783    -0.365157     1.685631
 C    -0.355130    -0.111221     1.467412
 C     0.472970     0.770684     2.420947
 C     1.736425    -0.059411     2.722336
 C     2.015823    -0.834214     1.418049
 C     0.628426    -1.099567     0.833902
 C     0.000000    -0.000000    -0.000000
 H     0.304307    -2.126282     0.639416
 H     2.566659    -1.770405     1.601511
 H     2.624553    -0.226557     0.724632
 H     1.501358    -0.784172     3.522038
 H     2.590414     0.550011     3.063525
 H    -0.098499     1.011312     3.331280
 H     0.737217     1.726550     1.933471
 H    -2.753562     0.718077     0.436601
 H    -5.041549     0.054502     1.189751
 O    -5.579329    -1.638043     3.166078
 H    -3.294311    -2.513716     4.204142
 H    -1.011830    -1.858199     3.431882
 H    -0.760870    -0.299389    -0.726353
 H     0.641316     0.832055    -0.309810
 H    -0.212209     0.892494    -0.592441
 H    -6.228567    -1.192313     2.640127
}

set scf_type df
set opt_type ts
set basis cc-pVDZ
set reference rhf
set geom_maxiter 400


mol.update_geometry()
mol.symmetrize(1e-3)

e, wfn = optimize('mp2', return_wfn=True)
oeprop(wfn, "MULLIKEN_CHARGES")
mol.print_out()
print_variables()
--------------------------------------------------------------------------

  Memory set to  29.802 GiB by Python driver.

Scratch directory: /tmp/
gradient() will perform analytic gradient computation.

*** tstart() called on skystd11.palmetto.clemson.edu
*** at Thu Oct 14 20:39:12 2021

   => Loading Basis Set <=

    Name: CC-PVDZ
    Role: ORBITAL
    Keyword: BASIS
    atoms 1-12         entry C          line   138 file /home/maxbuskirk/.conda/envs/psifour/share/psi4/basis/cc-pvdz.gbs 
    atoms 13-21, 23-28 entry H          line    22 file /home/maxbuskirk/.conda/envs/psifour/share/psi4/basis/cc-pvdz.gbs 
    atoms 22           entry O          line   198 file /home/maxbuskirk/.conda/envs/psifour/share/psi4/basis/cc-pvdz.gbs 


         ---------------------------------------------------------
                                   SCF
               by Justin Turney, Rob Parrish, Andy Simmonett
                          and Daniel G. A. Smith
                              RHF Reference
                        1 Threads,  30517 MiB Core
         ---------------------------------------------------------

  ==> Geometry <==

    Molecular point group: c1
    Full point group: C1

    Geometry (in Angstrom), charge = 1, multiplicity = 1:

       Center              X                  Y                   Z               Mass       
    ------------   -----------------  -----------------  -----------------  -----------------
         C           -1.380652080251     0.645267466179    -0.734153072698    12.000000000000
         C           -0.234392080251     0.114654466179    -0.111698072698    12.000000000000
         C           -0.403608080251    -0.793691533821     0.954398927302    12.000000000000
         C           -1.685875080251    -1.164458533821     1.385723927302    12.000000000000
         C           -2.822489080251    -0.631423533821     0.753766927302    12.000000000000
         C           -2.666469080251     0.273939466179    -0.307927072698    12.000000000000
         C            1.139183919749     0.527875466179    -0.526146072698    12.000000000000
         C            1.967283919749     1.409780466179     0.427388927302    12.000000000000
         C            3.230738919749     0.579685466179     0.728777927302    12.000000000000
         C            3.510136919749    -0.195117533821    -0.575509072698    12.000000000000
         C            2.122739919749    -0.460470533821    -1.159656072698    12.000000000000
         C            1.494313919749     0.639096466179    -1.993558072698    12.000000000000
         H            1.798620919749    -1.487185533821    -1.354142072698     1.007825032230
         H            4.060972919749    -1.131308533821    -0.392047072698     1.007825032230
         H            4.118866919749     0.412539466179    -1.268926072698     1.007825032230
         H            2.995671919749    -0.145075533821     1.528479927302     1.007825032230
         H            4.084727919749     1.189107466179     1.069966927302     1.007825032230
         H            1.395814919749     1.650408466179     1.337721927302     1.007825032230
         H            2.231530919749     2.365646466179    -0.060087072698     1.007825032230
         H           -1.259248080251     1.357173466179    -1.556957072698     1.007825032230
         H           -3.547235080251     0.693598466179    -0.803807072698     1.007825032230
         O           -4.085015080251    -0.998946533821     1.172519927302    15.994914619570
         H           -1.799997080251    -1.874619533821     2.210583927302     1.007825032230
         H            0.482483919749    -1.219102533821     1.438323927302     1.007825032230
         H            0.733443919749     0.339707466179    -2.719911072698     1.007825032230
         H            2.135629919749     1.471151466179    -2.303368072698     1.007825032230
         H            1.282104919749     1.531590466179    -2.585999072698     1.007825032230
         H           -4.734253080251    -0.553216533821     0.646568927302     1.007825032230

  Running in c1 symmetry.

  Rotational constants: A =      0.07090  B =      0.01432  C =      0.01322 [cm^-1]
  Rotational constants: A =   2125.65447  B =    429.31530  C =    396.18728 [MHz]
  Nuclear repulsion =  775.694844038082806

  Charge       = 1
  Multiplicity = 1
  Electrons    = 94
  Nalpha       = 47
  Nbeta        = 47

  ==> Algorithm <==

  SCF Algorithm Type is DF.
  DIIS enabled.
  MOM disabled.
  Fractional occupation disabled.
  Guess Type is SAD.
  Energy threshold   = 1.00e-10
  Density threshold  = 1.00e-10
  Integral threshold = 1.00e-12

  ==> Primary Basis <==

  Basis Set: CC-PVDZ
    Blend: CC-PVDZ
    Number of shells: 123
    Number of basis functions: 257
    Number of Cartesian functions: 270
    Spherical Harmonics?: true
    Max angular momentum: 2

   => Loading Basis Set <=

    Name: (CC-PVDZ AUX)
    Role: JKFIT
    Keyword: DF_BASIS_SCF
    atoms 1-12         entry C          line   121 file /home/maxbuskirk/.conda/envs/psifour/share/psi4/basis/cc-pvdz-jkfit.gbs 
    atoms 13-21, 23-28 entry H          line    51 file /home/maxbuskirk/.conda/envs/psifour/share/psi4/basis/cc-pvdz-jkfit.gbs 
    atoms 22           entry O          line   221 file /home/maxbuskirk/.conda/envs/psifour/share/psi4/basis/cc-pvdz-jkfit.gbs 

  ==> Integral Setup <==

  DFHelper Memory: AOs need 0.569 GiB; user supplied 22.352 GiB. Using in-core AOs.

  ==> MemDFJK: Density-Fitted J/K Matrices <==

    J tasked:                   Yes
    K tasked:                   Yes
    wK tasked:                   No
    OpenMP threads:               1
    Memory [MiB]:             22888
    Algorithm:                 Core
    Schwarz Cutoff:           1E-12
    Mask sparsity (%):      11.5823
    Fitting Condition:        1E-10

   => Auxiliary Basis Set <=

  Basis Set: (CC-PVDZ AUX)
    Blend: CC-PVDZ-JKFIT
    Number of shells: 447
    Number of basis functions: 1255
    Number of Cartesian functions: 1428
    Spherical Harmonics?: true
    Max angular momentum: 3

  Minimum eigenvalue in the overlap matrix is 3.3933605495E-04.
  Reciprocal condition number of the overlap matrix is 4.7769516457E-05.
    Using symmetric orthogonalization.

  ==> Pre-Iterations <==

  SCF Guess: Superposition of Atomic Densities via on-the-fly atomic UHF (no occupation information).

   -------------------------
    Irrep   Nso     Nmo    
   -------------------------
     A        257     257 
   -------------------------
    Total     257     257
   -------------------------

  ==> Iterations <==

                           Total Energy        Delta E     RMS |[F,P]|

   @DF-RHF iter SAD:  -537.97478408284337   -5.37975e+02   0.00000e+00 
   @DF-RHF iter   1:  -537.36795156041455    6.06833e-01   2.46950e-03 DIIS
   @DF-RHF iter   2:  -537.60431195376611   -2.36360e-01   1.05573e-03 DIIS
   @DF-RHF iter   3:  -537.64098577740140   -3.66738e-02   2.86941e-04 DIIS
   @DF-RHF iter   4:  -537.64486669615621   -3.88092e-03   9.69616e-05 DIIS
   @DF-RHF iter   5:  -537.64524876890596   -3.82073e-04   2.55390e-05 DIIS
   @DF-RHF iter   6:  -537.64528561479801   -3.68459e-05   8.01555e-06 DIIS
   @DF-RHF iter   7:  -537.64529031906375   -4.70427e-06   3.32129e-06 DIIS
   @DF-RHF iter   8:  -537.64529120327859   -8.84215e-07   1.21369e-06 DIIS
   @DF-RHF iter   9:  -537.64529139283343   -1.89555e-07   5.55950e-07 DIIS
   @DF-RHF iter  10:  -537.64529143337165   -4.05382e-08   2.57348e-07 DIIS
   @DF-RHF iter  11:  -537.64529144592541   -1.25538e-08   1.03767e-07 DIIS
   @DF-RHF iter  12:  -537.64529144792164   -1.99623e-09   3.92850e-08 DIIS
   @DF-RHF iter  13:  -537.64529144812502   -2.03386e-10   1.48619e-08 DIIS
   @DF-RHF iter  14:  -537.64529144814901   -2.39879e-11   3.98770e-09 DIIS
   @DF-RHF iter  15:  -537.64529144815276   -3.75167e-12   1.47250e-09 DIIS
   @DF-RHF iter  16:  -537.64529144815197    7.95808e-13   6.16689e-10 DIIS
   @DF-RHF iter  17:  -537.64529144815060    1.36424e-12   2.65119e-10 DIIS
   @DF-RHF iter  18:  -537.64529144815197   -1.36424e-12   1.15761e-10 DIIS
   @DF-RHF iter  19:  -537.64529144815276   -7.95808e-13   5.58499e-11 DIIS
  Energy and wave function converged.


  ==> Post-Iterations <==

    Orbital Energies [Eh]
    ---------------------

    Doubly Occupied:                                                      

       1A    -20.691999     2A    -11.491947     3A    -11.463608  
       4A    -11.439713     5A    -11.429361     6A    -11.394865  
       7A    -11.389747     8A    -11.383453     9A    -11.380378  
      10A    -11.378242    11A    -11.376444    12A    -11.362885  
      13A    -11.359829    14A     -1.506048    15A     -1.406942  
      16A     -1.274240    17A     -1.249001    18A     -1.170096  
      19A     -1.148268    20A     -1.141271    21A     -1.105030  
      22A     -0.975986    23A     -0.968079    24A     -0.960642  
      25A     -0.917835    26A     -0.878557    27A     -0.856017  
      28A     -0.841229    29A     -0.795181    30A     -0.778322  
      31A     -0.760525    32A     -0.750575    33A     -0.736132  
      34A     -0.711256    35A     -0.699058    36A     -0.689571  
      37A     -0.678556    38A     -0.667470    39A     -0.655105  
      40A     -0.639621    41A     -0.628696    42A     -0.624998  
      43A     -0.612881    44A     -0.599521    45A     -0.578255  
      46A     -0.463383    47A     -0.432543  

    Virtual:                                                              

      48A     -0.071129    49A     -0.025999    50A     -0.000606  
      51A      0.012630    52A      0.026143    53A      0.049751  
      54A      0.074225    55A      0.074927    56A      0.089726  
      57A      0.092123    58A      0.108026    59A      0.115168  
      60A      0.120823    61A      0.132749    62A      0.144414  
      63A      0.147081    64A      0.161460    65A      0.178529  
      66A      0.189886    67A      0.216355    68A      0.218057  
      69A      0.232462    70A      0.256402    71A      0.261149  
      72A      0.302886    73A      0.310341    74A      0.332438  
      75A      0.343912    76A      0.355668    77A      0.371111  
      78A      0.374108    79A      0.414656    80A      0.453785  
      81A      0.466007    82A      0.480882    83A      0.496446  
      84A      0.519363    85A      0.520082    86A      0.525774  
      87A      0.536064    88A      0.541292    89A      0.563437  
      90A      0.576306    91A      0.577985    92A      0.590860  
      93A      0.598821    94A      0.603199    95A      0.608204  
      96A      0.617815    97A      0.634583    98A      0.637766  
      99A      0.659237   100A      0.667803   101A      0.678068  
     102A      0.689069   103A      0.692507   104A      0.695992  
     105A      0.705627   106A      0.711961   107A      0.715000  
     108A      0.717202   109A      0.739776   110A      0.746447  
     111A      0.753175   112A      0.754972   113A      0.759603  
     114A      0.767864   115A      0.772420   116A      0.783875  
     117A      0.791020   118A      0.801394   119A      0.803703  
     120A      0.826279   121A      0.830697   122A      0.845124  
     123A      0.870631   124A      0.886297   125A      0.903617  
     126A      0.968917   127A      0.988406   128A      1.007589  
     129A      1.018133   130A      1.032753   131A      1.041907  
     132A      1.049145   133A      1.087722   134A      1.104706  
     135A      1.112522   136A      1.131231   137A      1.145884  
     138A      1.169193   139A      1.175422   140A      1.182048  
     141A      1.189189   142A      1.203138   143A      1.235900  
     144A      1.240807   145A      1.265240   146A      1.266359  
     147A      1.285940   148A      1.307013   149A      1.315093  
     150A      1.331457   151A      1.356972   152A      1.376811  
     153A      1.397012   154A      1.437993   155A      1.450417  
     156A      1.481829   157A      1.490627   158A      1.507743  
     159A      1.511833   160A      1.530089   161A      1.551833  
     162A      1.579625   163A      1.589445   164A      1.610148  
     165A      1.630181   166A      1.635359   167A      1.657428  
     168A      1.663205   169A      1.674809   170A      1.689978  
     171A      1.698594   172A      1.708238   173A      1.739477  
     174A      1.742489   175A      1.756196   176A      1.763636  
     177A      1.773645   178A      1.781267   179A      1.788781  
     180A      1.793752   181A      1.803590   182A      1.809173  
     183A      1.819719   184A      1.829129   185A      1.841967  
     186A      1.843963   187A      1.854832   188A      1.865098  
     189A      1.877456   190A      1.883409   191A      1.893900  
     192A      1.901260   193A      1.927438   194A      1.936915  
     195A      1.941184   196A      1.951352   197A      1.956198  
     198A      1.976507   199A      1.987952   200A      2.001104  
     201A      2.016866   202A      2.034573   203A      2.057328  
     204A      2.083951   205A      2.088866   206A      2.104530  
     207A      2.112214   208A      2.125526   209A      2.130177  
     210A      2.152613   211A      2.168088   212A      2.189487  
     213A      2.200677   214A      2.228515   215A      2.238157  
     216A      2.241434   217A      2.267131   218A      2.283387  
     219A      2.291058   220A      2.298345   221A      2.315280  
     222A      2.335899   223A      2.367714   224A      2.379223  
     225A      2.412095   226A      2.424117   227A      2.439561  
     228A      2.451831   229A      2.514081   230A      2.517600  
     231A      2.554224   232A      2.568063   233A      2.600775  
     234A      2.612928   235A      2.621105   236A      2.629933  
     237A      2.642466   238A      2.649405   239A      2.702304  
     240A      2.713092   241A      2.755061   242A      2.789789  
     243A      2.816504   244A      2.838158   245A      2.861254  
     246A      2.905110   247A      2.928065   248A      2.976733  
     249A      3.051538   250A      3.111251   251A      3.116453  
     252A      3.149050   253A      3.232960   254A      3.441513  
     255A      3.549144   256A      3.804980   257A      4.089089  

    Final Occupation by Irrep:
              A 
    DOCC [    47 ]

  @DF-RHF Final Energy:  -537.64529144815276

   => Energetics <=

    Nuclear Repulsion Energy =            775.6948440380828060
    One-Electron Energy =               -2253.7935505810910399
    Two-Electron Energy =                 940.4534150948553588
    Total Energy =                       -537.6452914481527614

Computation Completed


Properties will be evaluated at   0.000000,   0.000000,   0.000000 [a0]

Properties computed using the SCF density matrix

  Nuclear Dipole Moment: [e a0]
     X:    13.0854      Y:     4.3079      Z:    -4.5070

  Electronic Dipole Moment: [e a0]
     X:   -10.7627      Y:    -2.8606      Z:     1.6856

  Dipole Moment: [e a0]
     X:     2.3227      Y:     1.4474      Z:    -2.8214     Total:     3.9306

  Dipole Moment: [D]
     X:     5.9038      Y:     3.6788      Z:    -7.1712     Total:     9.9907


*** tstop() called on skystd11.palmetto.clemson.edu at Thu Oct 14 20:39:31 2021
Module time:
	user time   =      18.25 seconds =       0.30 minutes
	system time =       0.81 seconds =       0.01 minutes
	total time  =         19 seconds =       0.32 minutes
Total time:
	user time   =      18.25 seconds =       0.30 minutes
	system time =       0.81 seconds =       0.01 minutes
	total time  =         19 seconds =       0.32 minutes

*** tstart() called on skystd11.palmetto.clemson.edu
*** at Thu Oct 14 20:39:31 2021


  //>>>>>>>>>>>>>>>>>>>>>>>>>>>>>>>>>>>//
  //               DFMP2               //
  //<<<<<<<<<<<<<<<<<<<<<<<<<<<<<<<<<<<//

   => Loading Basis Set <=

    Name: (CC-PVDZ AUX)
    Role: RIFIT
    Keyword: DF_BASIS_MP2
    atoms 1-12         entry C          line   159 file /home/maxbuskirk/.conda/envs/psifour/share/psi4/basis/cc-pvdz-ri.gbs 
    atoms 13-21, 23-28 entry H          line    19 file /home/maxbuskirk/.conda/envs/psifour/share/psi4/basis/cc-pvdz-ri.gbs 
    atoms 22           entry O          line   235 file /home/maxbuskirk/.conda/envs/psifour/share/psi4/basis/cc-pvdz-ri.gbs 

	 --------------------------------------------------------
	                          DF-MP2                         
	      2nd-Order Density-Fitted Moller-Plesset Theory     
	              RMP2 Wavefunction,   1 Threads             
	                                                         
	        Rob Parrish, Justin Turney, Andy Simmonett,      
	           Ed Hohenstein, and C. David Sherrill          
	 --------------------------------------------------------

   => Auxiliary Basis Set <=

  Basis Set: (CC-PVDZ AUX)
    Blend: CC-PVDZ-RI
    Number of shells: 324
    Number of basis functions: 938
    Number of Cartesian functions: 1083
    Spherical Harmonics?: true
    Max angular momentum: 3

	 --------------------------------------------------------
	                 NBF =   257, NAUX =   938
	 --------------------------------------------------------
	   CLASS    FOCC     OCC    AOCC    AVIR     VIR    FVIR
	   PAIRS       0      47      47     210     210       0
	 --------------------------------------------------------

  DFHelper Memory: AOs need 0.569 GiB; user supplied 22.352 GiB. Using in-core AOs.


         ------------------------------------------------------------
                                     CPHF                           
                                  Rob Parrish                       
         ------------------------------------------------------------

  ==> Geometry <==

    Molecular point group: c1
    Full point group: C1

    Geometry (in Angstrom), charge = 1, multiplicity = 1:

       Center              X                  Y                   Z               Mass       
    ------------   -----------------  -----------------  -----------------  -----------------
         C           -1.380652080251     0.645267466179    -0.734153072698    12.000000000000
         C           -0.234392080251     0.114654466179    -0.111698072698    12.000000000000
         C           -0.403608080251    -0.793691533821     0.954398927302    12.000000000000
         C           -1.685875080251    -1.164458533821     1.385723927302    12.000000000000
         C           -2.822489080251    -0.631423533821     0.753766927302    12.000000000000
         C           -2.666469080251     0.273939466179    -0.307927072698    12.000000000000
         C            1.139183919749     0.527875466179    -0.526146072698    12.000000000000
         C            1.967283919749     1.409780466179     0.427388927302    12.000000000000
         C            3.230738919749     0.579685466179     0.728777927302    12.000000000000
         C            3.510136919749    -0.195117533821    -0.575509072698    12.000000000000
         C            2.122739919749    -0.460470533821    -1.159656072698    12.000000000000
         C            1.494313919749     0.639096466179    -1.993558072698    12.000000000000
         H            1.798620919749    -1.487185533821    -1.354142072698     1.007825032230
         H            4.060972919749    -1.131308533821    -0.392047072698     1.007825032230
         H            4.118866919749     0.412539466179    -1.268926072698     1.007825032230
         H            2.995671919749    -0.145075533821     1.528479927302     1.007825032230
         H            4.084727919749     1.189107466179     1.069966927302     1.007825032230
         H            1.395814919749     1.650408466179     1.337721927302     1.007825032230
         H            2.231530919749     2.365646466179    -0.060087072698     1.007825032230
         H           -1.259248080251     1.357173466179    -1.556957072698     1.007825032230
         H           -3.547235080251     0.693598466179    -0.803807072698     1.007825032230
         O           -4.085015080251    -0.998946533821     1.172519927302    15.994914619570
         H           -1.799997080251    -1.874619533821     2.210583927302     1.007825032230
         H            0.482483919749    -1.219102533821     1.438323927302     1.007825032230
         H            0.733443919749     0.339707466179    -2.719911072698     1.007825032230
         H            2.135629919749     1.471151466179    -2.303368072698     1.007825032230
         H            1.282104919749     1.531590466179    -2.585999072698     1.007825032230
         H           -4.734253080251    -0.553216533821     0.646568927302     1.007825032230

  Nuclear repulsion =  775.694844038082806
  Reference energy  = -537.645291448152761

  ==> Basis Set <==

  Basis Set: CC-PVDZ
    Blend: CC-PVDZ
    Number of shells: 123
    Number of basis functions: 257
    Number of Cartesian functions: 270
    Spherical Harmonics?: true
    Max angular momentum: 2

  ==> CGRSolver (by Rob Parrish) <==

   Number of roots    =         1
   Preconditioning    =    JACOBI
   Convergence cutoff =     1E-06
   Maximum iterations =       100

  ==> CPHFRHamiltonian (by Rob Parrish) <== 

  ==> MemDFJK: Density-Fitted J/K Matrices <==

    J tasked:                   Yes
    K tasked:                   Yes
    wK tasked:                   No
    OpenMP threads:               1
    Memory [MiB]:             22888
    Algorithm:                 Core
    Schwarz Cutoff:           1E-12
    Mask sparsity (%):      11.5823
    Fitting Condition:        1E-10

   => Auxiliary Basis Set <=

  Basis Set: (CC-PVDZ AUX)
    Blend: CC-PVDZ-JKFIT
    Number of shells: 447
    Number of basis functions: 1255
    Number of Cartesian functions: 1428
    Spherical Harmonics?: true
    Max angular momentum: 3

  ==> CPHF Iterations <==

  => Iterations <=

             Iter  Converged  Remaining    Residual
  CGR           1          0          1   1.076E-01
  CGR           2          0          1   2.323E-02
  CGR           3          0          1   1.316E-02
  CGR           4          0          1   5.327E-03
  CGR           5          0          1   2.516E-03
  CGR           6          0          1   1.067E-03
  CGR           7          0          1   3.359E-04
  CGR           8          0          1   9.215E-05
  CGR           9          0          1   3.402E-05
  CGR          10          0          1   8.824E-06
  CGR          11          0          1   3.317E-06
  CGR          12          0          1   1.220E-06
  CGR          13          1          0   5.889E-07

    CGRSolver converged.

  ==> DFCorrGrad: Density-Fitted Correlated Gradients <==

    OpenMP threads:              1
    Integrals threads:           1
    Memory [GiB]:           22.352
    Schwarz Cutoff:          0E+00
    Fitting Condition:       1E-10

   => Auxiliary Basis Set <=

  Basis Set: (CC-PVDZ AUX)
    Blend: CC-PVDZ-JKFIT
    Number of shells: 447
    Number of basis functions: 1255
    Number of Cartesian functions: 1428
    Spherical Harmonics?: true
    Max angular momentum: 3

	-----------------------------------------------------------
	 ==================> DF-MP2 Energies <==================== 
	-----------------------------------------------------------
	 Reference Energy          =    -537.6452914481527614 [Eh]
	 Singles Energy            =      -0.0000000000000000 [Eh]
	 Same-Spin Energy          =      -0.4845665607951170 [Eh]
	 Opposite-Spin Energy      =      -1.3570723857990998 [Eh]
	 Correlation Energy        =      -1.8416389465942169 [Eh]
	 Total Energy              =    -539.4869303947469916 [Eh]
	-----------------------------------------------------------
	 ================> DF-SCS-MP2 Energies <================== 
	-----------------------------------------------------------
	 SCS Same-Spin Scale       =       0.3333333333333333 [-]
	 SCS Opposite-Spin Scale   =       1.2000000000000000 [-]
	 SCS Same-Spin Energy      =      -0.1615221869317057 [Eh]
	 SCS Opposite-Spin Energy  =      -1.6284868629589198 [Eh]
	 SCS Correlation Energy    =      -1.7900090498906254 [Eh]
	 SCS Total Energy          =    -539.4353004980433752 [Eh]
	-----------------------------------------------------------


  -Total Gradient:
     Atom            X                  Y                   Z
    ------   -----------------  -----------------  -----------------
       1       -0.001076294832     0.001637950684    -0.001146036165
       2        0.005965180654     0.000029552542     0.007823217639
       3        0.000230591851    -0.000420123490     0.001523348057
       4       -0.003496947781     0.003070193866    -0.003662303834
       5        0.025761158764    -0.001331239042     0.001449454682
       6       -0.007721382046    -0.004139558839     0.004765124662
       7       -0.001681042287     0.008229210597    -0.010256456272
       8       -0.005950141422    -0.002866159456     0.001739524568
       9        0.001709791990     0.001066795424    -0.001105358143
      10       -0.007720466916    -0.003987969498     0.000446929062
      11       -0.011712235744     0.001418506003    -0.025838064000
      12        0.047274645846     0.042544297338    -0.022835421020
      13        0.001773526643    -0.002683703887     0.010941034181
      14        0.002108127719    -0.000306965746     0.002431087551
      15       -0.000717719227     0.002405333968    -0.000352737844
      16       -0.000327157611    -0.000850045608     0.000278397076
      17        0.001180192485     0.001332025442     0.001302523338
      18        0.001196372631     0.000228496084     0.003400969125
      19       -0.000293479976    -0.002023964636    -0.001085911442
      20        0.003045198123    -0.001511576378     0.000615769304
      21       -0.000015415607    -0.000168531785     0.000208565836
      22       -0.037998860577     0.013368408720    -0.015856707831
      23        0.001771751706    -0.000860788652     0.000979280818
      24        0.001508677760     0.000994320163    -0.001635111115
      25        0.005347474434     0.019571202032     0.009086257025
      26       -0.070698262553    -0.015840060375     0.000996256418
      27        0.037376768494    -0.046990086571     0.021898568704
      28        0.013159947481    -0.011915518899     0.013887799624


*** tstop() called on skystd11.palmetto.clemson.edu at Thu Oct 14 20:40:55 2021
Module time:
	user time   =      79.59 seconds =       1.33 minutes
	system time =       3.76 seconds =       0.06 minutes
	total time  =         84 seconds =       1.40 minutes
Total time:
	user time   =      97.84 seconds =       1.63 minutes
	system time =       4.57 seconds =       0.08 minutes
	total time  =        103 seconds =       1.72 minutes

			-----------------------------------------
			 OPTKING 2.0: for geometry optimizations 
			  - R.A. King,  Bethel University        
			-----------------------------------------

	Internal coordinates to be generated automatically.
	Detected frag 1 with atoms:  1 2 3 4 5 6 7 8 9 10 11 12 13 14 15 16 17 18 19 20
	 21 22 23 24 25 26 27 28
	---Fragment 1 Bond Connectivity---
	 1 : 2 6 20
	 2 : 1 3 7
	 3 : 2 4 24
	 4 : 3 5 23
	 5 : 4 6 22
	 6 : 1 5 21
	 7 : 2 8 11 12
	 8 : 7 9 18 19
	 9 : 8 10 16 17
	 10 : 9 11 14 15
	 11 : 7 10 12 13
	 12 : 7 11 25 26 27
	 13 : 11
	 14 : 10
	 15 : 10
	 16 : 9
	 17 : 9
	 18 : 8
	 19 : 8
	 20 : 1
	 21 : 6
	 22 : 5 28
	 23 : 4
	 24 : 3
	 25 : 12
	 26 : 12
	 27 : 12
	 28 : 22

	---Fragment 1 Geometry and Gradient---
	 C          -2.6090543062        1.2193787887       -1.3873482416
	 C          -0.4429368377        0.2166655401       -0.2110787661
	 C          -0.7627087337       -1.4998596270        1.8035525870
	 C          -3.1858421834       -2.2005077134        2.6186387081
	 C          -5.3337313538       -1.1932175481        1.4244130550
	 C          -5.0388962837        0.5176705660       -0.5818978340
	 C           2.1527456149        0.9975400594       -0.9942719794
	 C           3.7176278193        2.6640989781        0.8076480217
	 C           6.1052117412        1.0954467700        1.3771906889
	 C           6.6331974412       -0.3687187012       -1.0875545301
	 C           4.0113970839       -0.8701631978       -2.1914323771
	 C           2.8238440538        1.2077172888       -3.7672787726
	 H           3.3989009418       -2.8103733567       -2.5589576524
	 H           7.6741266212       -2.1378632923       -0.7408615957
	 H           7.7835304255        0.7795866070       -2.3979227509
	 H           5.6609994901       -0.2741530264        2.8884084509
	 H           7.7190170653        2.2470874448        2.0219444559
	 H           2.6377079202        3.1188199962        2.5279280746
	 H           4.2169822788        4.4704239307       -0.1135481111
	 H          -2.3796339957        2.5646861558       -2.9422224565
	 H          -6.7033028043        1.3107111421       -1.5189752251
	 O          -7.7195597200       -1.8877353629        2.2157415392
	 H          -3.4015015083       -3.5425175084        4.1773981999
	 H           0.9117624683       -2.3037699078        2.7180383023
	 H           1.3860081367        0.6419540739       -5.1398870130
	 H           4.0357556537        2.7800733601       -4.3527348235
	 H           2.4228271624        2.8942865174       -4.8868300081
	 H          -8.9464417303       -1.0454277370        1.2218381938
	            -0.0010762948        0.0016379507       -0.0011460362
	             0.0059651807        0.0000295525        0.0078232176
	             0.0002305919       -0.0004201235        0.0015233481
	            -0.0034969478        0.0030701939       -0.0036623038
	             0.0257611588       -0.0013312390        0.0014494547
	            -0.0077213820       -0.0041395588        0.0047651247
	            -0.0016810423        0.0082292106       -0.0102564563
	            -0.0059501414       -0.0028661595        0.0017395246
	             0.0017097920        0.0010667954       -0.0011053581
	            -0.0077204669       -0.0039879695        0.0004469291
	            -0.0117122357        0.0014185060       -0.0258380640
	             0.0472746458        0.0425442973       -0.0228354210
	             0.0017735266       -0.0026837039        0.0109410342
	             0.0021081277       -0.0003069657        0.0024310876
	            -0.0007177192        0.0024053340       -0.0003527378
	            -0.0003271576       -0.0008500456        0.0002783971
	             0.0011801925        0.0013320254        0.0013025233
	             0.0011963726        0.0002284961        0.0034009691
	            -0.0002934800       -0.0020239646       -0.0010859114
	             0.0030451981       -0.0015115764        0.0006157693
	            -0.0000154156       -0.0001685318        0.0002085658
	            -0.0379988606        0.0133684087       -0.0158567078
	             0.0017717517       -0.0008607887        0.0009792808
	             0.0015086778        0.0009943202       -0.0016351111
	             0.0053474744        0.0195712020        0.0090862570
	            -0.0706982626       -0.0158400604        0.0009962564
	             0.0373767685       -0.0469900866        0.0218985687
	             0.0131599475       -0.0119155189        0.0138877996

	Previous optimization step data not found.  Starting new optimization.

	---Fragment 1 Intrafragment Coordinates---
	 - Coordinate -           - BOHR/RAD -       - ANG/DEG -
	 R(1,2)           =         2.661035	       1.408159
	 R(1,6)           =         2.654294	       1.404592
	 R(1,20)          =         2.068845	       1.094786
	 R(2,3)           =         2.665981	       1.410776
	 R(2,7)           =         2.821476	       1.493061
	 R(3,4)           =         2.650820	       1.402754
	 R(3,24)          =         2.070365	       1.095590
	 R(4,5)           =         2.655981	       1.405485
	 R(4,23)          =         2.068147	       1.094416
	 R(5,6)           =         2.653177	       1.404001
	 R(5,22)          =         2.607821	       1.380000
	 R(6,21)          =         2.068158	       1.094422
	 R(7,8)           =         2.910875	       1.540368
	 R(7,11)          =         2.894148	       1.531517
	 R(7,12)          =         2.860789	       1.513864
	 R(8,9)           =         2.913006	       1.541497
	 R(8,18)          =         2.081433	       1.101447
	 R(8,19)          =         2.088245	       1.105052
	 R(9,10)          =         2.915050	       1.542578
	 R(9,16)          =         2.087321	       1.104562
	 R(9,17)          =         2.084790	       1.103224
	 R(10,11)         =         2.888569	       1.528565
	 R(10,14)         =         2.081731	       1.101604
	 R(10,15)         =         2.087806	       1.104820
	 R(11,12)         =         2.865512	       1.516364
	 R(11,13)         =         2.067521	       1.094085
	 R(12,25)         =         2.066764	       1.093684
	 R(12,26)         =         2.069732	       1.095255
	 R(12,27)         =         2.063668	       1.092046
	 R(22,28)         =         1.789571	       0.947000
	 B(1,2,3)         =         2.070330	     118.621159
	 B(1,2,7)         =         2.119852	     121.458574
	 B(1,6,5)         =         2.096327	     120.110679
	 B(1,6,21)        =         2.091924	     119.858405
	 B(2,1,6)         =         2.107639	     120.758819
	 B(2,1,20)        =         2.079425	     119.142292
	 B(2,3,4)         =         2.108523	     120.809467
	 B(2,3,24)        =         2.079202	     119.129487
	 B(2,7,8)         =         2.072817	     118.763664
	 B(2,7,11)        =         2.125903	     121.805252
	 B(2,7,12)        =         2.100422	     120.345328
	 B(3,2,7)         =         2.092441	     119.888038
	 B(3,4,5)         =         2.095249	     120.048921
	 B(3,4,23)        =         2.092759	     119.906259
	 B(4,3,24)        =         2.095393	     120.057181
	 B(4,5,6)         =         2.088291	     119.650243
	 B(4,5,22)        =         2.097186	     120.159901
	 B(5,4,23)        =         2.095155	     120.043517
	 B(5,6,21)        =         2.094932	     120.030779
	 B(5,22,28)       =         1.910633	     109.471230
	 B(6,1,20)        =         2.096116	     120.098614
	 B(6,5,22)        =         2.097705	     120.189632
	 B(7,8,9)         =         1.826944	     104.676198
	 B(7,8,18)        =         1.936680	     110.963570
	 B(7,8,19)        =         1.929130	     110.530986
	 B(7,11,10)       =         1.888930	     108.227717
	 B(7,11,12)       =         1.039528	      59.560564
	 B(7,11,13)       =         2.081600	     119.266883
	 B(7,12,11)       =         1.059720	      60.717500
	 B(7,12,25)       =         2.049292	     117.415782
	 B(7,12,26)       =         2.057096	     117.862942
	 B(7,12,27)       =         2.141610	     122.705224
	 B(8,7,11)        =         1.854886	     106.277162
	 B(8,7,12)        =         2.017351	     115.585685
	 B(8,9,10)        =         1.827213	     104.691617
	 B(8,9,16)        =         1.897014	     108.690913
	 B(8,9,17)        =         1.979545	     113.419580
	 B(9,8,18)        =         1.962002	     112.414409
	 B(9,8,19)        =         1.934839	     110.858094
	 B(9,10,11)       =         1.819262	     104.236043
	 B(9,10,14)       =         1.956931	     112.123910
	 B(9,10,15)       =         1.932871	     110.745342
	 B(10,9,16)       =         1.897723	     108.731493
	 B(10,9,17)       =         1.980944	     113.499740
	 B(10,11,12)      =         2.049282	     117.415187
	 B(10,11,13)      =         2.094079	     119.981893
	 B(11,7,12)       =         1.042344	      59.721936
	 B(11,10,14)      =         1.949769	     111.713517
	 B(11,10,15)      =         1.934481	     110.837597
	 B(11,12,25)      =         2.043221	     117.067911
	 B(11,12,26)      =         2.053042	     117.630648
	 B(11,12,27)      =         2.902294	     166.289211
	 B(12,11,13)      =         2.048738	     117.384025
	 B(14,10,15)      =         1.871758	     107.243849
	 B(16,9,17)       =         1.878938	     107.655190
	 B(18,8,19)       =         1.875161	     107.438837
	 B(25,12,26)      =         2.012474	     115.306264
	 B(25,12,27)      =         1.295571	      74.230762
	 B(26,12,27)      =         0.849254	      48.658693
	 D(1,2,3,4)       =         0.002225	       0.127485
	 D(1,2,3,24)      =         3.131341	     179.412627
	 D(1,2,7,8)       =         1.903727	     109.075519
	 D(1,2,7,11)      =        -2.009677	    -115.146011
	 D(1,2,7,12)      =        -0.769280	     -44.076485
	 D(1,6,5,4)       =        -0.001268	      -0.072650
	 D(1,6,5,22)      =        -3.139863	    -179.900897
	 D(2,1,6,5)       =         0.004887	       0.280010
	 D(2,1,6,21)      =        -3.139052	    -179.854428
	 D(2,3,4,5)       =         0.001304	       0.074700
	 D(2,3,4,23)      =         3.135653	     179.659684
	 D(2,7,8,9)       =         2.100956	     120.375901
	 D(2,7,8,18)      =        -0.019558	      -1.120595
	 D(2,7,8,19)      =        -2.098070	    -120.210552
	 D(2,7,11,10)     =        -2.431542	    -139.317099
	 D(2,7,11,12)     =         1.903190	     109.044759
	 D(2,7,11,13)     =         0.046269	       2.651043
	 D(2,7,12,11)     =        -1.944837	    -111.430967
	 D(2,7,12,25)     =        -0.072653	      -4.162703
	 D(2,7,12,26)     =         2.457624	     140.811498
	 D(2,7,12,27)     =         1.467377	      84.074498
	 D(3,2,1,6)       =        -0.005315	      -0.304531
	 D(3,2,1,20)      =         3.132955	     179.505096
	 D(3,2,7,8)       =        -1.201325	     -68.830845
	 D(3,2,7,11)      =         1.168456	      66.947624
	 D(3,2,7,12)      =         2.408854	     138.017151
	 D(3,4,5,6)       =        -0.001796	      -0.102888
	 D(3,4,5,22)      =         3.136800	     179.725411
	 D(4,3,2,7)       =         3.108309	     178.092997
	 D(4,5,6,21)      =        -3.140510	    -179.937978
	 D(4,5,22,28)     =         3.141593	     180.000000
	 D(5,4,3,24)      =        -3.127697	    -179.203838
	 D(5,6,1,20)      =        -3.133351	    -179.527802
	 D(6,1,2,7)       =        -3.110817	    -178.236678
	 D(6,5,4,23)      =        -3.136135	    -179.687298
	 D(6,5,22,28)     =        -0.003013	      -0.172625
	 D(7,2,1,20)      =         0.027453	       1.572949
	 D(7,2,3,24)      =        -0.045760	      -2.621861
	 D(7,8,9,10)      =         0.589407	      33.770540
	 D(7,8,9,16)      =        -1.436065	     -82.280465
	 D(7,8,9,17)      =         2.757968	     158.019943
	 D(7,11,10,9)     =         0.342659	      19.632931
	 D(7,11,10,14)    =         2.459428	     140.914841
	 D(7,11,10,15)    =        -1.737450	     -99.548568
	 D(7,11,12,25)    =        -1.882068	    -107.834530
	 D(7,11,12,26)    =         1.887309	     108.134828
	 D(7,11,12,27)    =         1.891341	     108.365864
	 D(7,12,11,10)    =        -1.674893	     -95.964306
	 D(7,12,11,13)    =         1.911561	     109.524357
	 D(8,7,11,10)     =         0.019569	       1.121217
	 D(8,7,11,12)     =        -1.928884	    -110.516925
	 D(8,7,11,13)     =         2.497380	     143.089359
	 D(8,7,12,11)     =         1.651177	      94.605460
	 D(8,7,12,25)     =        -2.759824	    -158.126276
	 D(8,7,12,26)     =        -0.229547	     -13.152074
	 D(8,7,12,27)     =        -1.219794	     -69.889074
	 D(8,9,10,11)     =        -0.573602	     -32.864999
	 D(8,9,10,14)     =        -2.685602	    -153.873654
	 D(8,9,10,15)     =         1.507600	      86.379143
	 D(9,8,7,11)      =        -0.375127	     -21.493186
	 D(9,8,7,12)      =        -1.487484	     -85.226572
	 D(9,10,11,12)    =         1.468895	      84.161501
	 D(9,10,11,13)    =        -2.129570	    -122.015351
	 D(10,9,8,18)     =         2.693170	     154.307289
	 D(10,9,8,19)     =        -1.490910	     -85.422842
	 D(10,11,7,12)    =         1.948453	     111.638142
	 D(10,11,12,25)   =         2.726225	     156.201164
	 D(10,11,12,26)   =         0.212416	      12.170522
	 D(10,11,12,27)   =         0.216448	      12.401558
	 D(11,7,8,18)     =        -2.495641	    -142.989682
	 D(11,7,8,19)     =         1.709033	      97.920361
	 D(11,7,12,25)    =         1.872184	     107.268264
	 D(11,7,12,26)    =        -1.880724	    -107.757534
	 D(11,7,12,27)    =        -2.870971	    -164.494534
	 D(11,10,9,16)    =         1.451379	      83.157872
	 D(11,10,9,17)    =        -2.741271	    -157.063259
	 D(12,7,8,18)     =         2.675187	     153.276932
	 D(12,7,8,19)     =         0.596675	      34.186976
	 D(12,7,11,13)    =        -1.856921	    -106.393716
	 D(12,11,10,14)   =        -2.697521	    -154.556588
	 D(12,11,10,15)   =        -0.611214	     -35.019998
	 D(13,11,10,14)   =        -0.012801	      -0.733441
	 D(13,11,10,15)   =         2.073506	     118.803150
	 D(13,11,12,25)   =         0.029493	       1.689827
	 D(13,11,12,26)   =        -2.484316	    -142.340815
	 D(13,11,12,27)   =        -2.480284	    -142.109779
	 D(14,10,9,16)    =        -0.660621	     -37.850783
	 D(14,10,9,17)    =         1.429915	      81.928087
	 D(15,10,9,16)    =        -2.750604	    -157.597986
	 D(15,10,9,17)    =        -0.660068	     -37.819116
	 D(16,9,8,18)     =         0.667698	      38.256283
	 D(16,9,8,19)     =         2.766803	     158.526152
	 D(17,9,8,18)     =        -1.421454	     -81.443309
	 D(17,9,8,19)     =         0.677651	      38.826560
	 D(20,1,6,21)     =         0.005895	       0.337760
	 D(21,6,5,22)     =         0.004080	       0.233775
	 D(22,5,4,23)     =         0.002461	       0.141000
	 D(23,4,3,24)     =         0.006652	       0.381147

	Current energy   :      -539.4869303947

	Generating empirical Hessian (Schlegel '84) for each fragment.
	Taking PRFO optimization step.
	Maximizing along 1 lowest eigenvalue of Hessian.

 RFO min eigenvalues
 -0.042291 -0.000000 -0.000000 -0.000000 -0.000000 -0.000000 -0.000000 -0.000000
 -0.000000 -0.000000 -0.000000 -0.000000 -0.000000 -0.000000 -0.000000 -0.000000
 -0.000000 -0.000000 -0.000000 -0.000000 -0.000000 -0.000000 -0.000000 -0.000000
 -0.000000 -0.000000 -0.000000 -0.000000 -0.000000 -0.000000 -0.000000 -0.000000
 -0.000000 -0.000000 -0.000000 -0.000000 -0.000000 -0.000000 -0.000000 -0.000000
 -0.000000 -0.000000 -0.000000 -0.000000 -0.000000 -0.000000 -0.000000 -0.000000
 -0.000000 -0.000000 -0.000000 -0.000000 -0.000000 -0.000000  0.000000  0.000000
  0.000000  0.000000  0.000000  0.000000  0.000000  0.000000  0.000000  0.000000
  0.000000  0.000000  0.000000  0.000000  0.000000  0.000000  0.000000  0.000000
  0.000000  0.000000  0.000000  0.000000  0.000000  0.000000  0.000000  0.000000
  0.000000  0.000000  0.000000  0.000000  0.000000  0.000000  0.000000  0.000000
  0.000000  0.000000  0.000000  0.000000  0.000000  0.000000  0.000000  0.000000
  0.000000  0.000000  0.000000  0.000000  0.000000  0.000000  0.000000  0.000000
  0.000000  0.000000  0.000000  0.000000  0.000000  0.003408  0.005773  0.005878
  0.007505  0.007592  0.012031  0.012455  0.015113  0.015744  0.017009  0.017273
  0.017349  0.017503  0.017564  0.017607  0.017656  0.020548  0.027625  0.028906
  0.033164  0.038493  0.043324  0.050842  0.053981  0.058637  0.061210  0.068931
  0.069852  0.070209  0.073189  0.079817  0.084027  0.093127  0.099087  0.103414
  0.107731  0.110792  0.159990  0.159997  0.159999  0.160000  0.160373  0.168486
  0.201703  0.205127  0.220001  0.229689  0.239995  0.249832  0.251199  0.263982
  0.266947  0.276423  0.290678  0.301711  0.331168  0.331298  0.331549  0.331826
  0.333286  0.335056  0.335231  0.341746  0.342654  0.343066  0.343072  0.343425
  0.343448  0.344146  0.362296  0.407336  0.409182  0.442342  0.445146  0.448766
  0.450628  0.492085  0.584575

 RFO max eigenvalues
 -0.000000  0.000000
	Change in coordinate exceeds step limit of    0.50000.
	Scaling displacements by    0.91423
	|RFO target step|  :        0.5000000000
	RFO gradient       :       -0.0773263186
	RFO hessian        :        0.0991117901
	Projected Delta(E) :       -0.0210193484

	Back-transformation to cartesian coordinates...
	Successfully converged to displaced geometry.

	--- Internal Coordinate Step in ANG or DEG, aJ/ANG or AJ/DEG ---
	 ---------------------------------------------------------------------------
	   Coordinate                Previous        Force       Change         New 
	   ----------                --------       ------       ------       ------
	    1 R(1,2)          =      1.408159    -0.000020    -0.000020     1.408139
	    2 R(1,6)          =      1.404592    -0.032804    -0.003806     1.400786
	    3 R(1,20)         =      1.094786     0.009129     0.001393     1.096178
	    4 R(2,3)          =      1.410776    -0.001909    -0.000370     1.410406
	    5 R(2,7)          =      1.493061    -0.014725    -0.002315     1.490745
	    6 R(3,4)          =      1.402754    -0.040284    -0.004906     1.397848
	    7 R(3,24)         =      1.095590    -0.000922    -0.000141     1.095449
	    8 R(4,5)          =      1.405485    -0.005203    -0.000607     1.404878
	    9 R(4,23)         =      1.094416    -0.009161    -0.001396     1.093020
	   10 R(5,6)          =      1.404001     0.038593     0.004740     1.408741
	   11 R(5,22)         =      1.380000    -0.179111    -0.019721     1.360278
	   12 R(6,21)         =      1.094422     0.001209     0.000184     1.094606
	   13 R(7,8)          =      1.540368     0.019285     0.003770     1.544139
	   14 R(7,11)         =      1.531517     0.027062     0.002090     1.533607
	   15 R(7,12)         =      1.513864    -0.016567    -0.002617     1.511248
	   16 R(8,9)          =      1.541497     0.009732     0.001259     1.542755
	   17 R(8,18)         =      1.101447    -0.018455    -0.002871     1.098576
	   18 R(8,19)         =      1.105052     0.011055     0.001738     1.106789
	   19 R(9,10)         =      1.542578    -0.002843    -0.000375     1.542203
	   20 R(9,16)         =      1.104562    -0.006829    -0.001072     1.103491
	   21 R(9,17)         =      1.103224    -0.016908    -0.002644     1.100580
	   22 R(10,11)        =      1.528565     0.018641     0.003084     1.531649
	   23 R(10,14)        =      1.101604    -0.014170    -0.002205     1.099399
	   24 R(10,15)        =      1.104820    -0.009465    -0.001487     1.103333
	   25 R(11,12)        =      1.516364     0.041009     0.009495     1.525859
	   26 R(11,13)        =      1.094085    -0.000397    -0.000060     1.094024
	   27 R(12,25)        =      1.093684     0.124505     0.018931     1.112616
	   28 R(12,26)        =      1.095255     0.442518     0.067597     1.162852
	   29 R(12,27)        =      1.092046     0.474111     0.071742     1.163788
	   30 R(22,28)        =      0.947000     0.184082     0.017269     0.964269
	   31 B(1,2,3)        =    118.621159     0.000179     0.412606   119.033765
	   32 B(1,2,7)        =    121.458574     0.000129     0.313811   121.772385
	   33 B(1,6,5)        =    120.110679    -0.000070    -0.129127   119.981552
	   34 B(1,6,21)       =    119.858405     0.000017    -0.000699   119.857706
	   35 B(2,1,6)        =    120.758819    -0.000114    -0.271579   120.487240
	   36 B(2,1,20)       =    119.142292     0.000308     0.991065   120.133357
	   37 B(2,3,4)        =    120.809467    -0.000018    -0.089742   120.719725
	   38 B(2,3,24)       =    119.129487     0.000199     0.700240   119.829727
	   39 B(2,7,8)        =    118.763664     0.000374     1.410826   120.174489
	   40 B(2,7,11)       =    121.805252    -0.000071     0.152744   121.957996
	   41 B(2,7,12)       =    120.345328    -0.000376    -1.700865   118.644463
	   42 B(3,2,7)        =    119.888038    -0.000309    -0.731857   119.156181
	   43 B(3,4,5)        =    120.048921    -0.000043    -0.123770   119.925151
	   44 B(3,4,23)       =    119.906259     0.000171     0.561694   120.467953
	   45 B(4,3,24)       =    120.057181    -0.000181    -0.608709   119.448471
	   46 B(4,5,6)        =    119.650243     0.000066     0.201715   119.851958
	   47 B(4,5,22)       =    120.159901    -0.001047    -2.490098   117.669803
	   48 B(5,4,23)       =    120.043517    -0.000128    -0.437479   119.606038
	   49 B(5,6,21)       =    120.030779     0.000053     0.129517   120.160296
	   50 B(5,22,28)      =    109.471230    -0.000404    -1.386139   108.085091
	   51 B(6,1,20)       =    120.098614    -0.000194    -0.721745   119.376869
	   52 B(6,5,22)       =    120.189632     0.000982     2.288491   122.478123
	   53 B(7,8,9)        =    104.676198     0.000032     0.037933   104.714131
	   54 B(7,8,18)       =    110.963570    -0.000197    -0.995427   109.968143
	   55 B(7,8,19)       =    110.530986     0.000122     0.672719   111.203705
	   56 B(7,11,10)      =    108.227717     0.000146     0.539792   108.767509
	   57 B(7,11,12)      =     59.560564    -0.000186    -0.359090    59.201474
	   58 B(7,11,13)      =    119.266883    -0.000013     0.394327   119.661211
	   59 B(7,12,11)      =     60.717500     0.000055    -0.062822    60.654678
	   60 B(7,12,25)      =    117.415782     0.000069     1.856109   119.271891
	   61 B(7,12,26)      =    117.862942    -0.000223     1.353056   119.215997
	   62 B(7,12,27)      =    122.705224    -0.000164    -0.844372   121.860852
	   63 B(8,7,11)       =    106.277162    -0.000200    -0.657012   105.620151
	   64 B(8,7,12)       =    115.585685    -0.000013    -0.081392   115.504293
	   65 B(8,9,10)       =    104.691617     0.000083     0.012586   104.704203
	   66 B(8,9,16)       =    108.690913    -0.000012     0.148013   108.838926
	   67 B(8,9,17)       =    113.419580    -0.000016    -0.041480   113.378100
	   68 B(9,8,18)       =    112.414409     0.000097     0.544546   112.958956
	   69 B(9,8,19)       =    110.858094    -0.000013     0.071091   110.929185
	   70 B(9,10,11)      =    104.236043    -0.000146    -0.586265   103.649777
	   71 B(9,10,14)      =    112.123910     0.000218     0.858406   112.982316
	   72 B(9,10,15)      =    110.745342     0.000021     0.374987   111.120329
	   73 B(10,9,16)      =    108.731493     0.000032     0.305146   109.036640
	   74 B(10,9,17)      =    113.499740    -0.000096    -0.397254   113.102486
	   75 B(10,11,12)     =    117.415187     0.000156     0.518398   117.933585
	   76 B(10,11,13)     =    119.981893     0.000095     0.876875   120.858768
	   77 B(11,7,12)      =     59.721936     0.000131     0.421912    60.143848
	   78 B(11,10,14)     =    111.713517    -0.000137    -0.818678   110.894838
	   79 B(11,10,15)     =    110.837597     0.000124     0.509445   111.347042
	   80 B(11,12,25)     =    117.067911    -0.000284    -2.254706   114.813205
	   81 B(11,12,26)     =    117.630648    -0.001192    -7.169046   110.461603
	   82 B(11,12,27)     =    166.289211     0.000359     1.854081   168.143292
	   83 B(12,11,13)     =    117.384025    -0.000289    -2.231837   115.152187
	   84 B(14,10,15)     =    107.243849    -0.000073    -0.311582   106.932267
	   85 B(16,9,17)      =    107.655190     0.000013     0.007989   107.663180
	   86 B(18,8,19)      =    107.438837    -0.000038    -0.309141   107.129696
	   87 B(25,12,26)     =    115.306264     0.000961     2.536803   117.843066
	   88 B(25,12,27)     =     74.230762    -0.000023     0.639986    74.870748
	   89 B(26,12,27)     =     48.658693     0.001550     9.125773    57.784466
	   90 D(1,2,3,4)      =      0.127485    -0.000001    -0.025761     0.101725
	   91 D(1,2,3,24)     =    179.412627     0.000003     0.161962   179.574589
	   92 D(1,2,7,8)      =    109.075519    -0.000016    -1.153621   107.921898
	   93 D(1,2,7,11)     =   -115.146011     0.000001    -0.060855  -115.206866
	   94 D(1,2,7,12)     =    -44.076485    -0.000008    -0.266842   -44.343327
	   95 D(1,6,5,4)      =     -0.072650    -0.000001    -0.016860    -0.089510
	   96 D(1,6,5,22)     =   -179.900897    -0.000001    -0.061605  -179.962502
	   97 D(2,1,6,5)      =      0.280010     0.000000    -0.009673     0.270337
	   98 D(2,1,6,21)     =   -179.854428    -0.000002    -0.117839  -179.972268
	   99 D(2,3,4,5)      =      0.074700     0.000000     0.001323     0.076023
	  100 D(2,3,4,23)     =    179.659684     0.000002     0.078122   179.737807
	  101 D(2,7,8,9)      =    120.375901     0.000006     0.573071   120.948972
	  102 D(2,7,8,18)     =     -1.120595    -0.000000     0.434296    -0.686299
	  103 D(2,7,8,19)     =   -120.210552     0.000022     1.028836  -119.181715
	  104 D(2,7,11,10)    =   -139.317099    -0.000067    -1.695004  -141.012104
	  105 D(2,7,11,12)    =    109.044759    -0.000087    -1.984489   107.060270
	  106 D(2,7,11,13)    =      2.651043     0.000011     1.115016     3.766059
	  107 D(2,7,12,11)    =   -111.430967    -0.000026    -1.018604  -112.449572
	  108 D(2,7,12,25)    =     -4.162703    -0.000107    -4.590575    -8.753278
	  109 D(2,7,12,26)    =    140.811498     0.000277     8.397164   149.208662
	  110 D(2,7,12,27)    =     84.074498    -0.000123    -3.051951    81.022547
	  111 D(3,2,1,6)      =     -0.304531     0.000000     0.029446    -0.275085
	  112 D(3,2,1,20)     =    179.505096    -0.000007    -0.362787   179.142308
	  113 D(3,2,7,8)      =    -68.830845    -0.000014    -0.992648   -69.823494
	  114 D(3,2,7,11)     =     66.947624     0.000003     0.100118    67.047742
	  115 D(3,2,7,12)     =    138.017151    -0.000005    -0.105869   137.911282
	  116 D(3,4,5,6)      =     -0.102888     0.000000     0.020151    -0.082737
	  117 D(3,4,5,22)     =    179.725411     0.000002     0.070873   179.796284
	  118 D(4,3,2,7)      =    178.092997    -0.000003    -0.183479   177.909518
	  119 D(4,5,6,21)     =   -179.937978     0.000002     0.091814  -179.846164
	  120 D(4,5,22,28)    =    180.000000    -0.000002    -0.103303   179.896697
	  121 D(5,4,3,24)     =   -179.203838    -0.000004    -0.194996  -179.398833
	  122 D(5,6,1,20)     =   -179.527802     0.000008     0.376364  -179.151438
	  123 D(6,1,2,7)      =   -178.236678     0.000005     0.213521  -178.023157
	  124 D(6,5,4,23)     =   -179.687298    -0.000001    -0.060151  -179.747450
	  125 D(6,5,22,28)    =     -0.172625    -0.000001    -0.055059    -0.227684
	  126 D(7,2,1,20)     =      1.572949    -0.000003    -0.178712     1.394236
	  127 D(7,2,3,24)     =     -2.621861     0.000000     0.004243    -2.617618
	  128 D(7,8,9,10)     =     33.770540     0.000039     1.034500    34.805040
	  129 D(7,8,9,16)     =    -82.280465     0.000022     0.608456   -81.672008
	  130 D(7,8,9,17)     =    158.019943     0.000022     0.522356   158.542299
	  131 D(7,11,10,9)    =     19.632931     0.000014     0.470025    20.102956
	  132 D(7,11,10,14)   =    140.914841     0.000037     0.707507   141.622349
	  133 D(7,11,10,15)   =    -99.548568     0.000014     0.111903   -99.436665
	  134 D(7,11,12,25)   =   -107.834530    -0.000051    -3.145797  -110.980327
	  135 D(7,11,12,26)   =    108.134828     0.000058     4.688473   112.823301
	  136 D(7,11,12,27)   =    108.365864    -0.000046    -2.739812   105.626052
	  137 D(7,12,11,10)   =    -95.964306    -0.000003    -0.229137   -96.193443
	  138 D(7,12,11,13)   =    109.524357     0.000011     1.365855   110.890212
	  139 D(8,7,11,10)    =      1.121217    -0.000003     0.011321     1.132538
	  140 D(8,7,11,12)    =   -110.516925    -0.000023    -0.278164  -110.795089
	  141 D(8,7,11,13)    =    143.089359     0.000075     2.821341   145.910700
	  142 D(8,7,12,11)    =     94.605460    -0.000042    -0.583215    94.022245
	  143 D(8,7,12,25)    =   -158.126276    -0.000123    -4.155185  -162.281461
	  144 D(8,7,12,26)    =    -13.152074     0.000262     8.832554    -4.319520
	  145 D(8,7,12,27)    =    -69.889074    -0.000138    -2.616561   -72.505636
	  146 D(8,9,10,11)    =    -32.864999    -0.000023    -0.763741   -33.628740
	  147 D(8,9,10,14)    =   -153.873654     0.000009     0.135238  -153.738416
	  148 D(8,9,10,15)    =     86.379143    -0.000007    -0.313305    86.065839
	  149 D(9,8,7,11)     =    -21.493186    -0.000010    -0.525319   -22.018505
	  150 D(9,8,7,12)     =    -85.226572    -0.000025    -0.729854   -85.956426
	  151 D(9,10,11,12)   =     84.161501    -0.000016     0.352066    84.513567
	  152 D(9,10,11,13)   =   -122.015351    -0.000053    -2.162018  -124.177369
	  153 D(10,9,8,18)    =    154.307289     0.000001     0.147780   154.455069
	  154 D(10,9,8,19)    =    -85.422842     0.000002     0.175128   -85.247714
	  155 D(10,11,7,12)   =    111.638142     0.000020     0.289485   111.927627
	  156 D(10,11,12,25)  =    156.201164    -0.000054    -3.374933   152.826231
	  157 D(10,11,12,26)  =     12.170522     0.000055     4.459337    16.629859
	  158 D(10,11,12,27)  =     12.401558    -0.000049    -2.968949     9.432609
	  159 D(11,7,8,18)    =   -142.989682    -0.000016    -0.664094  -143.653776
	  160 D(11,7,8,19)    =     97.920361     0.000005    -0.069554    97.850808
	  161 D(11,7,12,25)   =    107.268264    -0.000081    -3.571971   103.696293
	  162 D(11,7,12,26)   =   -107.757534     0.000304     9.415768   -98.341766
	  163 D(11,7,12,27)   =   -164.494534    -0.000096    -2.033347  -166.527881
	  164 D(11,10,9,16)   =     83.157872    -0.000013    -0.446171    82.711701
	  165 D(11,10,9,17)   =   -157.063259    -0.000019    -0.479370  -157.542629
	  166 D(12,7,8,18)    =    153.276932    -0.000032    -0.868629   152.408303
	  167 D(12,7,8,19)    =     34.186976    -0.000010    -0.274089    33.912887
	  168 D(12,7,11,13)   =   -106.393716     0.000098     3.099505  -103.294211
	  169 D(12,11,10,14)  =   -154.556588     0.000007     0.589548  -153.967040
	  170 D(12,11,10,15)  =    -35.019998    -0.000016    -0.006056   -35.026054
	  171 D(13,11,10,14)  =     -0.733441    -0.000031    -1.924536    -2.657977
	  172 D(13,11,10,15)  =    118.803150    -0.000054    -2.520140   116.283010
	  173 D(13,11,12,25)  =      1.689827    -0.000040    -1.779941    -0.090115
	  174 D(13,11,12,26)  =   -142.340815     0.000069     6.054329  -136.286487
	  175 D(13,11,12,27)  =   -142.109779    -0.000035    -1.373957  -143.483736
	  176 D(14,10,9,16)   =    -37.850783     0.000019     0.452808   -37.397975
	  177 D(14,10,9,17)   =     81.928087     0.000013     0.419609    82.347695
	  178 D(15,10,9,16)   =   -157.597986     0.000003     0.004266  -157.593720
	  179 D(15,10,9,17)   =    -37.819116    -0.000002    -0.028934   -37.848050
	  180 D(16,9,8,18)    =     38.256283    -0.000016    -0.278263    37.978020
	  181 D(16,9,8,19)    =    158.526152    -0.000014    -0.250916   158.275237
	  182 D(17,9,8,18)    =    -81.443309    -0.000016    -0.364364   -81.807673
	  183 D(17,9,8,19)    =     38.826560    -0.000014    -0.337016    38.489544
	  184 D(20,1,6,21)    =      0.337760     0.000005     0.268198     0.605958
	  185 D(21,6,5,22)    =      0.233775     0.000001     0.047069     0.280844
	  186 D(22,5,4,23)    =      0.141000    -0.000000    -0.009429     0.131571
	  187 D(23,4,3,24)    =      0.381147    -0.000002    -0.118196     0.262950
	 ---------------------------------------------------------------------------
	Successfully symmetrized geometry.

  ==> Convergence Check <==

  Measures of convergence in internal coordinates in au.
  Criteria marked as inactive (o), active & met (*), and active & unmet ( ).
  --------------------------------------------------------------------------------------------- ~
   Step     Total Energy     Delta E     MAX Force     RMS Force      MAX Disp      RMS Disp    ~
  --------------------------------------------------------------------------------------------- ~
    Convergence Criteria    1.00e-06 *    3.00e-04 *             o    1.20e-03 *             o  ~
  --------------------------------------------------------------------------------------------- ~
      1    -539.48693039   -5.39e+02      5.75e-02      7.40e-03 o    1.64e-01      3.62e-02 o  ~
  ---------------------------------------------------------------------------------------------

	Writing optimization data to binary file.
	Structure for next step:
	Cartesian Geometry (in Angstrom)
	    C    -1.3871648996   0.6248753865  -0.7611437456
	    C    -0.2456482812   0.1140771946  -0.1139339525
	    C    -0.4126306057  -0.7741313981   0.9688622384
	    C    -1.6902934231  -1.1469792268   1.3961096966
	    C    -2.8244828831  -0.6362174814   0.7431030353
	    C    -2.6698357410   0.2518061510  -0.3395097732
	    C     1.1313689237   0.5250248308  -0.5105031223
	    C     1.9598585571   1.4500516765   0.4072628031
	    C     3.2290965914   0.6382275766   0.7390316135
	    C     3.5250570628  -0.1667607959  -0.5426826921
	    C     2.1343772605  -0.4688177381  -1.1090028131
	    C     1.4716856746   0.5933003686  -1.9813506004
	    H     1.8221235035  -1.4976669478  -1.3111323592
	    H     4.0792930156  -1.0959779335  -0.3476008579
	    H     4.1282631546   0.4241153079  -1.2528595346
	    H     2.9992266943  -0.0630244216   1.5594564030
	    H     4.0755334822   1.2634344200   1.0614250041
	    H     1.3754272591   1.7150745565   1.2989310596
	    H     2.2184547042   2.3959178302  -0.1060089433
	    H    -1.2785353592   1.3273741967  -1.5955906029
	    H    -3.5500848562   0.6547781175  -0.8503303732
	    O    -4.0450742493  -1.0327533294   1.1939617692
	    H    -1.8148718545  -1.8389451631   2.2329827166
	    H     0.4664702953  -1.1848202815   1.4773152073
	    H     0.7456855665   0.1990250945  -2.7265916726
	    H     2.2581933730   1.3680452434  -2.3465919321
	    H     1.1815436992   1.5099157904  -2.6371220259
	    H    -4.7180039673  -0.6023429896   0.6538434375
			--------------------------
			 OPTKING Finished Execution 
			--------------------------

    Structure for next step:
    Molecular point group: c1
    Full point group: C1

    Geometry (in Angstrom), charge = 1, multiplicity = 1:

    C           -1.387474549118     0.624045185712    -0.766420882000
    C           -0.245957926162     0.113246991861    -0.119211086343
    C           -0.412940251362    -0.774961604352     0.963585108788
    C           -1.690603073738    -1.147809434536     1.390832568729
    C           -2.824792538213    -0.637047687104     0.737825904872
    C           -2.670145395488     0.250975948734    -0.344786907973
    C            1.131059284167     0.524194629675    -0.515780257742
    C            1.959548920732     1.449221478947     0.401985671326
    C            3.228786960057     0.637397375879     0.733754483001
    C            3.524747432669    -0.167590999758    -0.547959827626
    C            2.134067624849    -0.469647943160    -1.114279950880
    C            1.471376036347     0.592470167665    -1.986627741605
    H            1.821813866619    -1.498497156894    -1.316409497789
    H            4.078983387578    -1.096808141016    -0.352877992668
    H            4.127953526815     0.423285106362    -1.258136672895
    H            2.998917062077    -0.063854625036     1.554179275772
    H            4.075223854165     1.262604221742     1.056147874856
    H            1.375117620442     1.714244359983     1.293653931325
    H            2.218145068902     2.395087636359    -0.111286077121
    H           -1.278845008291     1.326543998638    -1.600867742530
    H           -3.550394514140     0.653947916850    -0.855607509943
    O           -4.045383909271    -1.033583536647     1.188684640521
    H           -1.815181505705    -1.839775373607     2.227705591982
    H            0.466160653091    -1.185650489433     1.472038079675
    H            0.745375925389     0.198194892050    -2.731868816678
    H            2.257883737855     1.367215045572    -2.351869074709
    H            1.181234059818     1.509085593067    -2.642399169681
    H           -4.718313629885    -0.603173195173     0.648566306722


Scratch directory: /tmp/
gradient() will perform analytic gradient computation.

*** tstart() called on skystd11.palmetto.clemson.edu
*** at Thu Oct 14 20:40:55 2021

   => Loading Basis Set <=

    Name: CC-PVDZ
    Role: ORBITAL
    Keyword: BASIS
    atoms 1-12         entry C          line   138 file /home/maxbuskirk/.conda/envs/psifour/share/psi4/basis/cc-pvdz.gbs 
    atoms 13-21, 23-28 entry H          line    22 file /home/maxbuskirk/.conda/envs/psifour/share/psi4/basis/cc-pvdz.gbs 
    atoms 22           entry O          line   198 file /home/maxbuskirk/.conda/envs/psifour/share/psi4/basis/cc-pvdz.gbs 


         ---------------------------------------------------------
                                   SCF
               by Justin Turney, Rob Parrish, Andy Simmonett
                          and Daniel G. A. Smith
                              RHF Reference
                        1 Threads,  30517 MiB Core
         ---------------------------------------------------------

  ==> Geometry <==

    Molecular point group: c1
    Full point group: C1

    Geometry (in Angstrom), charge = 1, multiplicity = 1:

       Center              X                  Y                   Z               Mass       
    ------------   -----------------  -----------------  -----------------  -----------------
         C           -1.387474549118     0.624045185712    -0.766420882000    12.000000000000
         C           -0.245957926162     0.113246991861    -0.119211086343    12.000000000000
         C           -0.412940251362    -0.774961604352     0.963585108788    12.000000000000
         C           -1.690603073738    -1.147809434536     1.390832568729    12.000000000000
         C           -2.824792538213    -0.637047687104     0.737825904872    12.000000000000
         C           -2.670145395488     0.250975948734    -0.344786907973    12.000000000000
         C            1.131059284167     0.524194629675    -0.515780257742    12.000000000000
         C            1.959548920732     1.449221478947     0.401985671326    12.000000000000
         C            3.228786960057     0.637397375879     0.733754483001    12.000000000000
         C            3.524747432669    -0.167590999758    -0.547959827626    12.000000000000
         C            2.134067624849    -0.469647943160    -1.114279950880    12.000000000000
         C            1.471376036347     0.592470167665    -1.986627741605    12.000000000000
         H            1.821813866619    -1.498497156894    -1.316409497789     1.007825032230
         H            4.078983387578    -1.096808141016    -0.352877992668     1.007825032230
         H            4.127953526815     0.423285106362    -1.258136672895     1.007825032230
         H            2.998917062077    -0.063854625036     1.554179275772     1.007825032230
         H            4.075223854165     1.262604221742     1.056147874856     1.007825032230
         H            1.375117620442     1.714244359983     1.293653931325     1.007825032230
         H            2.218145068902     2.395087636359    -0.111286077121     1.007825032230
         H           -1.278845008291     1.326543998638    -1.600867742530     1.007825032230
         H           -3.550394514140     0.653947916850    -0.855607509943     1.007825032230
         O           -4.045383909271    -1.033583536647     1.188684640521    15.994914619570
         H           -1.815181505705    -1.839775373607     2.227705591982     1.007825032230
         H            0.466160653091    -1.185650489433     1.472038079675     1.007825032230
         H            0.745375925389     0.198194892050    -2.731868816678     1.007825032230
         H            2.257883737855     1.367215045572    -2.351869074709     1.007825032230
         H            1.181234059818     1.509085593067    -2.642399169681     1.007825032230
         H           -4.718313629885    -0.603173195173     0.648566306722     1.007825032230

  Running in c1 symmetry.

  Rotational constants: A =      0.07072  B =      0.01435  C =      0.01325 [cm^-1]
  Rotational constants: A =   2120.07953  B =    430.14395  C =    397.08483 [MHz]
  Nuclear repulsion =  775.358300832711734

  Charge       = 1
  Multiplicity = 1
  Electrons    = 94
  Nalpha       = 47
  Nbeta        = 47

  ==> Algorithm <==

  SCF Algorithm Type is DF.
  DIIS enabled.
  MOM disabled.
  Fractional occupation disabled.
  Guess Type is READ.
  Energy threshold   = 1.00e-10
  Density threshold  = 1.00e-10
  Integral threshold = 1.00e-12

  ==> Primary Basis <==

  Basis Set: CC-PVDZ
    Blend: CC-PVDZ
    Number of shells: 123
    Number of basis functions: 257
    Number of Cartesian functions: 270
    Spherical Harmonics?: true
    Max angular momentum: 2

   => Loading Basis Set <=

    Name: (CC-PVDZ AUX)
    Role: JKFIT
    Keyword: DF_BASIS_SCF
    atoms 1-12         entry C          line   121 file /home/maxbuskirk/.conda/envs/psifour/share/psi4/basis/cc-pvdz-jkfit.gbs 
    atoms 13-21, 23-28 entry H          line    51 file /home/maxbuskirk/.conda/envs/psifour/share/psi4/basis/cc-pvdz-jkfit.gbs 
    atoms 22           entry O          line   221 file /home/maxbuskirk/.conda/envs/psifour/share/psi4/basis/cc-pvdz-jkfit.gbs 

   => Loading Basis Set <=

    Name: CC-PVDZ
    Role: ORBITAL
    Keyword: BASIS
    atoms 1-12         entry C          line   138 file /home/maxbuskirk/.conda/envs/psifour/share/psi4/basis/cc-pvdz.gbs 
    atoms 13-21, 23-28 entry H          line    22 file /home/maxbuskirk/.conda/envs/psifour/share/psi4/basis/cc-pvdz.gbs 
    atoms 22           entry O          line   198 file /home/maxbuskirk/.conda/envs/psifour/share/psi4/basis/cc-pvdz.gbs 

  Reading orbitals from file /tmp/2-2ndcornerOH.mol.157769.180.npy, no projection.

  ==> Integral Setup <==

  DFHelper Memory: AOs need 0.568 GiB; user supplied 22.352 GiB. Using in-core AOs.

  ==> MemDFJK: Density-Fitted J/K Matrices <==

    J tasked:                   Yes
    K tasked:                   Yes
    wK tasked:                   No
    OpenMP threads:               1
    Memory [MiB]:             22888
    Algorithm:                 Core
    Schwarz Cutoff:           1E-12
    Mask sparsity (%):      11.6550
    Fitting Condition:        1E-10

   => Auxiliary Basis Set <=

  Basis Set: (CC-PVDZ AUX)
    Blend: CC-PVDZ-JKFIT
    Number of shells: 447
    Number of basis functions: 1255
    Number of Cartesian functions: 1428
    Spherical Harmonics?: true
    Max angular momentum: 3

  Minimum eigenvalue in the overlap matrix is 3.3779189391E-04.
  Reciprocal condition number of the overlap matrix is 4.8012479044E-05.
    Using symmetric orthogonalization.

  ==> Pre-Iterations <==

  SCF Guess: Orbitals guess was supplied from a previous computation.

   -------------------------------------------------------
    Irrep   Nso     Nmo     Nalpha   Nbeta   Ndocc  Nsocc
   -------------------------------------------------------
     A        257     257      47      47      47       0
   -------------------------------------------------------
    Total     257     257      47      47      47       0
   -------------------------------------------------------

  ==> Iterations <==

                           Total Energy        Delta E     RMS |[F,P]|

   @DF-RHF iter   0:  -537.50817225624144   -5.37508e+02   8.88282e-04 
   @DF-RHF iter   1:  -537.65945959802400   -1.51287e-01   2.75545e-04 DIIS
   @DF-RHF iter   2:  -537.66235437424837   -2.89478e-03   1.22041e-04 DIIS
   @DF-RHF iter   3:  -537.66289906215604   -5.44688e-04   2.92496e-05 DIIS
   @DF-RHF iter   4:  -537.66295995231167   -6.08902e-05   1.13909e-05 DIIS
   @DF-RHF iter   5:  -537.66297216883879   -1.22165e-05   4.77792e-06 DIIS
   @DF-RHF iter   6:  -537.66297440594394   -2.23711e-06   1.55535e-06 DIIS
   @DF-RHF iter   7:  -537.66297474209728   -3.36153e-07   5.77161e-07 DIIS
   @DF-RHF iter   8:  -537.66297478458728   -4.24900e-08   2.55181e-07 DIIS
   @DF-RHF iter   9:  -537.66297479484365   -1.02564e-08   1.21486e-07 DIIS
   @DF-RHF iter  10:  -537.66297479767877   -2.83512e-09   4.85230e-08 DIIS
   @DF-RHF iter  11:  -537.66297479807827   -3.99496e-10   2.01280e-08 DIIS
   @DF-RHF iter  12:  -537.66297479812511   -4.68390e-11   5.96246e-09 DIIS
   @DF-RHF iter  13:  -537.66297479812545   -3.41061e-13   2.51837e-09 DIIS
   @DF-RHF iter  14:  -537.66297479812738   -1.93268e-12   7.43718e-10 DIIS
   @DF-RHF iter  15:  -537.66297479812806   -6.82121e-13   2.44975e-10 DIIS
   @DF-RHF iter  16:  -537.66297479812783    2.27374e-13   1.01903e-10 DIIS
   @DF-RHF iter  17:  -537.66297479812658    1.25056e-12   4.15355e-11 DIIS
  Energy and wave function converged.


  ==> Post-Iterations <==

    Orbital Energies [Eh]
    ---------------------

    Doubly Occupied:                                                      

       1A    -20.697504     2A    -11.484519     3A    -11.467912  
       4A    -11.439912     5A    -11.429243     6A    -11.396238  
       7A    -11.389043     8A    -11.384069     9A    -11.379504  
      10A    -11.377099    11A    -11.376614    12A    -11.362709  
      13A    -11.356318    14A     -1.514321    15A     -1.393373  
      16A     -1.271910    17A     -1.223925    18A     -1.161772  
      19A     -1.143015    20A     -1.126392    21A     -1.095767  
      22A     -0.977003    23A     -0.963756    24A     -0.960507  
      25A     -0.917002    26A     -0.871778    27A     -0.849743  
      28A     -0.831865    29A     -0.789224    30A     -0.780233  
      31A     -0.759514    32A     -0.746224    33A     -0.735133  
      34A     -0.712275    35A     -0.699019    36A     -0.693838  
      37A     -0.682650    38A     -0.662150    39A     -0.656548  
      40A     -0.639482    41A     -0.630199    42A     -0.625349  
      43A     -0.613657    44A     -0.600166    45A     -0.578313  
      46A     -0.464418    47A     -0.430462  

    Virtual:                                                              

      48A     -0.097292    49A     -0.023188    50A      0.000949  
      51A      0.012950    52A      0.026828    53A      0.049474  
      54A      0.074138    55A      0.078758    56A      0.087484  
      57A      0.094186    58A      0.107836    59A      0.116915  
      60A      0.121027    61A      0.133825    62A      0.143712  
      63A      0.148124    64A      0.162636    65A      0.175881  
      66A      0.190460    67A      0.216282    68A      0.220289  
      69A      0.231643    70A      0.255938    71A      0.261386  
      72A      0.305732    73A      0.310655    74A      0.331715  
      75A      0.346916    76A      0.358257    77A      0.372510  
      78A      0.378168    79A      0.428151    80A      0.447429  
      81A      0.472105    82A      0.482454    83A      0.499926  
      84A      0.519645    85A      0.521696    86A      0.523071  
      87A      0.537176    88A      0.540883    89A      0.563483  
      90A      0.575400    91A      0.576874    92A      0.588418  
      93A      0.600567    94A      0.608184    95A      0.610064  
      96A      0.614962    97A      0.633253    98A      0.642158  
      99A      0.656642   100A      0.665411   101A      0.672585  
     102A      0.686266   103A      0.694308   104A      0.699570  
     105A      0.706554   106A      0.710623   107A      0.714683  
     108A      0.717240   109A      0.733676   110A      0.745216  
     111A      0.752139   112A      0.752806   113A      0.760846  
     114A      0.765767   115A      0.773646   116A      0.781059  
     117A      0.789380   118A      0.801206   119A      0.804371  
     120A      0.824366   121A      0.828234   122A      0.845457  
     123A      0.869856   124A      0.884274   125A      0.900744  
     126A      0.969479   127A      0.990234   128A      1.010232  
     129A      1.019897   130A      1.031351   131A      1.044429  
     132A      1.051475   133A      1.084187   134A      1.106684  
     135A      1.112261   136A      1.126946   137A      1.140232  
     138A      1.161101   139A      1.171279   140A      1.179226  
     141A      1.181500   142A      1.199951   143A      1.233556  
     144A      1.242313   145A      1.261803   146A      1.272749  
     147A      1.284627   148A      1.300611   149A      1.310263  
     150A      1.325090   151A      1.351215   152A      1.369966  
     153A      1.387184   154A      1.433322   155A      1.447056  
     156A      1.467700   157A      1.496605   158A      1.499596  
     159A      1.504964   160A      1.527912   161A      1.548556  
     162A      1.567028   163A      1.579127   164A      1.592750  
     165A      1.631945   166A      1.636034   167A      1.648560  
     168A      1.664386   169A      1.674288   170A      1.683629  
     171A      1.696562   172A      1.703306   173A      1.733197  
     174A      1.739239   175A      1.757620   176A      1.765074  
[...]
      17        0.000194294594    -0.000031536611     0.000683464947
      18       -0.000254139306     0.000360567802    -0.000015422108
      19       -0.000191797149     0.000308789324    -0.000233218169
      20       -0.000221987470     0.000369653973    -0.000145379168
      21       -0.000325368074     0.000248047313    -0.000289093200
      22        0.001080414045    -0.000355416386     0.000421609775
      23       -0.000168468188    -0.000297568241     0.000279222144
      24        0.000260071888    -0.000208352908     0.000097988063
      25        0.000915826563    -0.001075351497    -0.002139811655
      26        0.001896629124     0.001713455976    -0.002829383470
      27        0.012812234310    -0.012493542472    -0.024850987829
      28       -0.000867341435     0.000366742868    -0.000412251865


*** tstop() called on skystd11.palmetto.clemson.edu at Thu Oct 14 20:54:38 2021
Module time:
	user time   =      78.92 seconds =       1.32 minutes
	system time =       3.83 seconds =       0.06 minutes
	total time  =         83 seconds =       1.38 minutes
Total time:
	user time   =     856.58 seconds =      14.28 minutes
	system time =      41.15 seconds =       0.69 minutes
	total time  =        926 seconds =      15.43 minutes

			-----------------------------------------
			 OPTKING 2.0: for geometry optimizations 
			  - R.A. King,  Bethel University        
			-----------------------------------------

	Previous internal coordinate definitions found.
	---Fragment 1 Geometry and Gradient---
	 C          -2.6055704202        1.2013213654       -1.3772177835
	 C          -0.4482999734        0.1545097402       -0.2314496787
	 C          -0.7404247698       -1.7631667525        1.6050111152
	 C          -3.1454397835       -2.6193344302        2.2685361423
	 C          -5.3092838752       -1.5788878229        1.1051020508
	 C          -5.0210977411        0.3350411964       -0.7240009151
	 C           2.1606937213        1.0954124734       -0.7635740692
	 C           3.5620425240        3.0019974519        0.9449329127
	 C           6.0302243512        1.6133598003        1.6322808957
	 C           6.6948547603        0.1011381630       -0.7769637045
	 C           4.0998313509       -0.6014193510       -1.7748195764
	 C           2.5904702541        1.6193301886       -3.6455509677
	 H           3.6612672581       -2.4563788477       -2.5783303142
	 H           7.7947609664       -1.6347710272       -0.4416070105
	 H           7.7808965836        1.2414840130       -2.1415153690
	 H           5.6366854687        0.2716422840        3.1796242189
	 H           7.5626785277        2.8720615920        2.2551414588
	 H           2.3921454020        3.4631961754        2.5978343757
	 H           3.9287482559        4.7811711407       -0.0799807153
	 H          -2.4343964916        2.7155585381       -2.7770530960
	 H          -6.6858084397        1.1580516274       -1.6392746082
	 O          -7.5686193429       -2.5156704348        1.8402091498
	 H          -3.4045305385       -4.1015826579        3.6847083631
	 H           0.9215146577       -2.5845972434        2.5291569042
	 H           1.9268055955        0.0779135490       -4.9133518815
	 H           4.5311445417        2.1672221854       -4.2782234208
	 H           1.7283098618        3.1266789687       -4.8454186309
	 H          -8.9036730972       -1.6453056544        0.9334929908
	             0.0000303444       -0.0007793187       -0.0010619953
	             0.0001709927        0.0006399385       -0.0016348325
	             0.0001075188       -0.0001064147        0.0012587748
	             0.0014096827        0.0001069242        0.0001919254
	            -0.0014289710        0.0001624723       -0.0002969858
	            -0.0000241532        0.0001217328       -0.0000945186
	            -0.0001976508        0.0000278403        0.0055270380
	             0.0016278259       -0.0011023765       -0.0007699647
	             0.0003089259       -0.0000895023        0.0000579388
	             0.0004737273       -0.0002363285        0.0013234725
	            -0.0026853770        0.0038918513       -0.0301172403
	            -0.0147955592        0.0088100686        0.0537320038
	             0.0003742195       -0.0011342034        0.0017683179
	             0.0006464057        0.0000254950       -0.0004433684
	            -0.0005015717        0.0011858820        0.0000663807
	            -0.0006467290       -0.0004295502       -0.0000736836
	             0.0001942946       -0.0000315366        0.0006834649
	            -0.0002541393        0.0003605678       -0.0000154221
	            -0.0001917971        0.0003087893       -0.0002332182
	            -0.0002219875        0.0003696540       -0.0001453792
	            -0.0003253681        0.0002480473       -0.0002890932
	             0.0010804140       -0.0003554164        0.0004216098
	            -0.0001684682       -0.0002975682        0.0002792221
	             0.0002600719       -0.0002083529        0.0000979881
	             0.0009158266       -0.0010753515       -0.0021398117
	             0.0018966291        0.0017134560       -0.0028293835
	             0.0128122343       -0.0124935425       -0.0248509878
	            -0.0008673414        0.0003667429       -0.0004122519

	---Fragment 1 Intrafragment Coordinates---
	 - Coordinate -           - BOHR/RAD -       - ANG/DEG -
	 R(1,2)           =         2.657520	       1.406299
	 R(1,6)           =         2.648000	       1.401261
	 R(1,20)          =         2.069240	       1.094995
	 R(2,3)           =         2.671218	       1.413548
	 R(2,7)           =         2.824058	       1.494427
	 R(3,4)           =         2.637686	       1.395803
	 R(3,24)          =         2.071433	       1.096155
	 R(4,5)           =         2.668020	       1.411855
	 R(4,23)          =         2.066333	       1.093456
	 R(5,6)           =         2.663042	       1.409221
	 R(5,22)          =         2.553927	       1.351480
	 R(6,21)          =         2.070346	       1.095580
	 R(7,8)           =         2.918534	       1.544422
	 R(7,11)          =         2.768052	       1.464790
	 R(7,12)          =         2.960572	       1.566667
	 R(8,9)           =         2.914221	       1.542139
	 R(8,18)          =         2.076884	       1.099040
	 R(8,19)          =         2.085756	       1.103735
	 R(9,10)          =         2.921131	       1.545796
	 R(9,16)          =         2.085510	       1.103604
	 R(9,17)          =         2.078630	       1.099963
	 R(10,11)         =         2.867656	       1.517498
	 R(10,14)         =         2.082220	       1.101863
	 R(10,15)         =         2.083717	       1.102656
	 R(11,12)         =         3.272543	       1.731755
	 R(11,13)         =         2.068536	       1.094622
	 R(12,25)         =         2.103268	       1.113001
	 R(12,26)         =         2.113451	       1.118390
	 R(12,27)         =         2.110712	       1.116940
	 R(22,28)         =         1.833586	       0.970292
	 B(1,2,3)         =         2.083370	     119.368282
	 B(1,2,7)         =         2.138224	     122.511198
	 B(1,6,5)         =         2.098174	     120.216520
	 B(1,6,21)        =         2.087917	     119.628826
	 B(2,1,6)         =         2.100497	     120.349611
	 B(2,1,20)        =         2.109203	     120.848428
	 B(2,3,4)         =         2.100969	     120.376664
	 B(2,3,24)        =         2.098632	     120.242734
	 B(2,7,8)         =         2.154283	     123.431321
	 B(2,7,11)        =         2.108066	     120.783300
	 B(2,7,12)        =         1.956806	     112.116746
	 B(3,2,7)         =         2.059816	     118.018783
	 B(3,4,5)         =         2.098110	     120.212830
	 B(3,4,23)        =         2.117145	     121.303467
	 B(4,3,24)        =         2.083570	     119.379758
	 B(4,5,6)         =         2.085199	     119.473119
	 B(4,5,22)        =         2.036356	     116.674610
	 B(5,4,23)        =         2.067928	     118.483526
	 B(5,6,21)        =         2.097090	     120.154403
	 B(5,22,28)       =         1.904640	     109.127813
	 B(6,1,20)        =         2.073436	     118.799153
	 B(6,5,22)        =         2.161628	     123.852182
	 B(7,8,9)         =         1.806422	     103.500381
	 B(7,8,18)        =         1.918236	     109.906821
	 B(7,8,19)        =         1.932647	     110.732512
	 B(7,11,10)       =         1.935460	     110.893714
	 B(7,11,12)       =         1.011898	      57.977478
	 B(7,11,13)       =         2.144916	     122.894613
	 B(7,12,11)       =         0.915236	      52.439141
	 B(7,12,25)       =         1.994651	     114.285069
	 B(7,12,26)       =         2.060748	     118.072189
	 B(7,12,27)       =         2.240121	     128.349500
	 B(8,7,11)        =         1.852456	     106.137924
	 B(8,7,12)        =         1.965517	     112.615813
	 B(8,9,10)        =         1.818162	     104.172989
	 B(8,9,16)        =         1.898359	     108.767974
	 B(8,9,17)        =         1.989454	     113.987314
	 B(9,8,18)        =         1.977062	     113.277323
	 B(9,8,19)        =         1.953529	     111.928970
	 B(9,10,11)       =         1.780252	     102.000949
	 B(9,10,14)       =         2.003070	     114.767458
	 B(9,10,15)       =         1.955609	     112.048130
	 B(10,9,16)       =         1.898442	     108.772725
	 B(10,9,17)       =         1.974557	     113.133781
	 B(10,11,12)      =         2.037598	     116.745781
	 B(10,11,13)      =         2.149244	     123.142587
	 B(11,7,12)       =         1.214459	      69.583381
	 B(11,10,14)      =         1.906902	     109.257437
	 B(11,10,15)      =         1.958276	     112.200964
	 B(11,12,25)      =         1.563579	      89.586486
	 B(11,12,26)      =         1.494253	      85.614367
	 B(11,12,27)      =         3.077896	     176.350423
	 B(12,11,13)      =         1.863662	     106.779948
	 B(14,10,15)      =         1.861260	     106.642336
	 B(16,9,17)       =         1.882176	     107.840728
	 B(18,8,19)       =         1.876209	     107.498848
	 B(25,12,26)      =         1.874743	     107.414881
	 B(25,12,27)      =         1.622645	      92.970715
	 B(26,12,27)      =         1.590566	      91.132724
	 D(1,2,3,4)       =         0.004954	       0.283870
	 D(1,2,3,24)      =        -3.130768	    -179.379791
	 D(1,2,7,8)       =         1.697207	      97.242780
	 D(1,2,7,11)      =        -2.118995	    -121.409483
	 D(1,2,7,12)      =        -0.745683	     -42.724464
	 D(1,6,5,4)       =        -0.002557	      -0.146525
	 D(1,6,5,22)      =         3.140996	     179.965840
	 D(2,1,6,5)       =         0.009888	       0.566564
	 D(2,1,6,21)      =        -3.134887	    -179.615818
	 D(2,3,4,5)       =         0.002299	       0.131711
	 D(2,3,4,23)      =         3.141181	     179.976433
	 D(2,7,8,9)       =         2.159533	     123.732134
	 D(2,7,8,18)      =         0.042844	       2.454784
	 D(2,7,8,19)      =        -2.027479	    -116.165991
	 D(2,7,11,10)     =        -2.557493	    -146.533527
	 D(2,7,11,12)     =         1.819213	     104.233213
	 D(2,7,11,13)     =         0.247407	      14.175350
	 D(2,7,12,11)     =        -2.024391	    -115.989068
	 D(2,7,12,25)     =        -0.818618	     -46.903363
	 D(2,7,12,26)     =        -3.048964	    -174.692746
	 D(2,7,12,27)     =         1.196086	      68.530671
	 D(3,2,1,6)       =        -0.011043	      -0.632691
	 D(3,2,1,20)      =         3.119781	     178.750302
	 D(3,2,7,8)       =        -1.379914	     -79.063227
	 D(3,2,7,11)      =         1.087070	      62.284510
	 D(3,2,7,12)      =         2.460382	     140.969528
	 D(3,4,5,6)       =        -0.003518	      -0.201552
	 D(3,4,5,22)      =         3.136252	     179.694017
	 D(4,3,2,7)       =         3.084164	     176.709563
	 D(4,5,6,21)      =        -3.140950	    -179.963179
	 D(4,5,22,28)     =         3.128619	     179.256660
	 D(5,4,3,24)      =         3.138072	     179.798261
	 D(5,6,1,20)      =        -3.121154	    -178.828953
	 D(6,1,2,7)       =        -3.087325	    -176.890698
	 D(6,5,4,23)      =         3.140709	     179.949393
	 D(6,5,22,28)     =        -0.014884	      -0.852815
	 D(7,2,1,20)      =         0.043499	       2.492295
	 D(7,2,3,24)      =        -0.051559	      -2.954097
	 D(7,8,9,10)      =         0.617045	      35.354075
	 D(7,8,9,16)      =        -1.405313	     -80.518488
	 D(7,8,9,17)      =         2.777272	     159.125961
	 D(7,11,10,9)     =         0.369353	      21.162381
	 D(7,11,10,14)    =         2.496332	     143.029264
	 D(7,11,10,15)    =        -1.726493	     -98.920779
	 D(7,11,12,25)    =        -2.122795	    -121.627188
	 D(7,11,12,26)    =         2.284137	     130.871426
	 D(7,11,12,27)    =         1.812736	     103.862122
	 D(7,12,11,10)    =        -1.727292	     -98.966528
	 D(7,12,11,13)    =         2.071983	     118.715860
	 D(8,7,11,10)     =         0.010531	       0.603366
	 D(8,7,11,12)     =        -1.895949	    -108.629894
	 D(8,7,11,13)     =         2.815430	     161.312242
	 D(8,7,12,11)     =         1.737795	      99.568320
	 D(8,7,12,25)     =         2.943568	     168.654025
	 D(8,7,12,26)     =         0.713223	      40.864642
	 D(8,7,12,27)     =        -1.324913	     -75.911941
	 D(8,9,10,11)     =        -0.600107	     -34.383599
	 D(8,9,10,14)     =        -2.659533	    -152.380029
	 D(8,9,10,15)     =         1.497608	      85.806592
	 D(9,8,7,11)      =        -0.389357	     -22.308526
	 D(9,8,7,12)      =        -1.683783	     -96.473668
	 D(9,10,11,12)    =         1.480988	      84.854359
	 D(9,10,11,13)    =        -2.434560	    -139.490001
	 D(10,9,8,18)     =         2.693610	     154.332487
	 D(10,9,8,19)     =        -1.464827	     -83.928402
	 D(10,11,7,12)    =         1.906480	     109.233260
	 D(10,11,12,25)   =         2.433099	     139.406284
	 D(10,11,12,26)   =         0.556846	      31.904898
	 D(10,11,12,27)   =         0.085444	       4.895594
	 D(11,7,8,18)     =        -2.506046	    -143.585875
	 D(11,7,8,19)     =         1.706816	      97.793350
	 D(11,7,12,25)    =         1.205773	      69.085705
	 D(11,7,12,26)    =        -1.024572	     -58.703678
	 D(11,7,12,27)    =        -3.062708	    -175.480261
	 D(11,10,9,16)    =         1.422193	      81.485635
	 D(11,10,9,17)    =        -2.769948	    -158.706318
	 D(12,7,8,18)     =         2.482713	     142.248983
	 D(12,7,8,19)     =         0.412390	      23.628208
	 D(12,7,11,13)    =        -1.571806	     -90.057863
	 D(12,11,10,14)   =        -2.675219	    -153.278757
	 D(12,11,10,15)   =        -0.614859	     -35.228800
	 D(13,11,10,14)   =        -0.307581	     -17.623117
	 D(13,11,10,15)   =         1.752779	     100.426840
	 D(13,11,12,25)   =        -0.050812	      -2.911329
	 D(13,11,12,26)   =        -1.927065	    -110.412714
	 D(13,11,12,27)   =        -2.398467	    -137.422018
	 D(14,10,9,16)    =        -0.637234	     -36.510795
	 D(14,10,9,17)    =         1.453811	      83.297252
	 D(15,10,9,16)    =        -2.763278	    -158.324174
	 D(15,10,9,17)    =        -0.672233	     -38.516127
	 D(16,9,8,18)     =         0.671252	      38.459924
	 D(16,9,8,19)     =         2.796001	     160.199035
	 D(17,9,8,18)     =        -1.429348	     -81.895627
	 D(17,9,8,19)     =         0.695400	      39.843484
	 D(20,1,6,21)     =         0.017255	       0.988665
	 D(21,6,5,22)     =         0.002604	       0.149186
	 D(22,5,4,23)     =        -0.002706	      -0.155038
	 D(23,4,3,24)     =        -0.006231	      -0.357017

	Current energy   :      -539.5515075457

	Energy change for the previous step:
		Projected    :        -0.0050957921
		Actual       :        -0.0060237392

	Performing Bofill update.
	Previous computed or guess Hessian on step 1.
	Steps to be used in Hessian update: 8 7
	Taking PRFO optimization step.
	Maximizing along 1 lowest eigenvalue of Hessian.

 RFO min eigenvalues
 -0.003946 -0.000000 -0.000000 -0.000000 -0.000000 -0.000000 -0.000000 -0.000000
 -0.000000 -0.000000 -0.000000 -0.000000 -0.000000 -0.000000 -0.000000 -0.000000
 -0.000000 -0.000000 -0.000000 -0.000000 -0.000000 -0.000000 -0.000000 -0.000000
 -0.000000 -0.000000 -0.000000 -0.000000 -0.000000 -0.000000 -0.000000 -0.000000
 -0.000000 -0.000000 -0.000000 -0.000000 -0.000000 -0.000000 -0.000000 -0.000000
 -0.000000 -0.000000 -0.000000 -0.000000 -0.000000 -0.000000 -0.000000 -0.000000
 -0.000000 -0.000000 -0.000000  0.000000  0.000000  0.000000  0.000000  0.000000
  0.000000  0.000000  0.000000  0.000000  0.000000  0.000000  0.000000  0.000000
  0.000000  0.000000  0.000000  0.000000  0.000000  0.000000  0.000000  0.000000
  0.000000  0.000000  0.000000  0.000000  0.000000  0.000000  0.000000  0.000000
  0.000000  0.000000  0.000000  0.000000  0.000000  0.000000  0.000000  0.000000
  0.000000  0.000000  0.000000  0.000000  0.000000  0.000000  0.000000  0.000000
  0.000000  0.000000  0.000000  0.000000  0.000000  0.000000  0.000000  0.000000
  0.000000  0.000000  0.000000  0.000000  0.000000  0.000000  0.003701  0.006066
  0.007591  0.008058  0.012382  0.012467  0.015199  0.015732  0.016999  0.017246
  0.017347  0.017436  0.017526  0.017581  0.017608  0.017656  0.020681  0.027640
  0.029214  0.037372  0.043013  0.050309  0.053944  0.058187  0.061128  0.065562
  0.068925  0.069804  0.070224  0.078788  0.081341  0.089697  0.095541  0.098738
  0.105144  0.110680  0.159796  0.159983  0.159992  0.159999  0.160820  0.168022
  0.201267  0.204087  0.220053  0.229689  0.240145  0.249350  0.249774  0.263640
  0.266284  0.276325  0.290673  0.301260  0.331132  0.331300  0.331543  0.331824
  0.333280  0.335055  0.335228  0.341746  0.342652  0.343066  0.343071  0.343446
  0.343668  0.343997  0.376133  0.407393  0.409349  0.442332  0.445272  0.449406
  0.450558  0.490580  0.583313

 RFO max eigenvalues
 -0.013812  0.000043
	Change in coordinate exceeds step limit of    0.50000.
	Scaling displacements by    0.99294
	|RFO target step|  :        0.5000000000
	RFO gradient       :       -0.0077501709
	RFO hessian        :        0.0114941925
	Projected Delta(E) :       -0.0019506491

	Back-transformation to cartesian coordinates...
	The INTCO_EXCEPTion handler:
	TORS::compute_val: unable to compute torsion value
	Dynamic level is 0.
	exc.g_really_quit() is 0.

  **** Optimization has failed! (in 9 steps) ****
			--------------------------
			 OPTKING Finished Execution 
			--------------------------
	Removing binary optimization data file.
	Cleaning optimization helper files.

PsiException: Could not converge geometry optimization in 8 iterations.


Traceback (most recent call last):
  File "/home/maxbuskirk/.conda/envs/psifour/bin/psi4", line 333, in <module>
    exec(content)
  File "<string>", line 59, in <module>
  File "/home/maxbuskirk/.conda/envs/psifour/lib//python3.9/site-packages/psi4/driver/driver.py", line 1433, in optimize
    raise OptimizationConvergenceError("""geometry optimization""", n - 1, wfn)

psi4.driver.p4util.exceptions.OptimizationConvergenceError: Could not converge geometry optimization in 8 iterations.


Printing out the relevant lines from the Psithon --> Python processed input file:
    core.set_global_option("BASIS", "cc-pVDZ")
    core.set_global_option("REFERENCE", "rhf")
    core.set_global_option("GEOM_MAXITER", 400)
    mol.update_geometry()
    mol.symmetrize(1e-3)
--> e, wfn = optimize('mp2', return_wfn=True)
    oeprop(wfn, "MULLIKEN_CHARGES")
    mol.print_out()
    print_variables()

!------------------------------------------------------------!
!                                                            !
!  Could not converge geometry optimization in 8 iterations. !
!                                                            !
!------------------------------------------------------------!

    Psi4 stopped on: Thursday, 14 October 2021 08:54PM
    Psi4 wall time for execution: 0:15:29.95

*** Psi4 encountered an error. Buy a developer more coffee!
*** Resources and help at github.com/psi4/psi4.
