
    -----------------------------------------------------------------------
          Psi4: An Open-Source Ab Initio Electronic Structure Package
                               Psi4 1.4 release

                         Git: Rev {HEAD} 9485035 


    D. G. A. Smith, L. A. Burns, A. C. Simmonett, R. M. Parrish,
    M. C. Schieber, R. Galvelis, P. Kraus, H. Kruse, R. Di Remigio,
    A. Alenaizan, A. M. James, S. Lehtola, J. P. Misiewicz, M. Scheurer,
    R. A. Shaw, J. B. Schriber, Y. Xie, Z. L. Glick, D. A. Sirianni,
    J. S. O'Brien, J. M. Waldrop, A. Kumar, E. G. Hohenstein,
    B. P. Pritchard, B. R. Brooks, H. F. Schaefer III, A. Yu. Sokolov,
    K. Patkowski, A. E. DePrince III, U. Bozkaya, R. A. King,
    F. A. Evangelista, J. M. Turney, T. D. Crawford, C. D. Sherrill,
    J. Chem. Phys. 152(18) 184108 (2020). https://doi.org/10.1063/5.0006002

                            Additional Code Authors
    E. T. Seidl, C. L. Janssen, E. F. Valeev, M. L. Leininger,
    J. F. Gonthier, R. M. Richard, H. R. McAlexander, M. Saitow, X. Wang,
    P. Verma, and M. H. Lechner

             Previous Authors, Complete List of Code Contributors,
                       and Citations for Specific Modules
    https://github.com/psi4/psi4/blob/master/codemeta.json
    https://github.com/psi4/psi4/graphs/contributors
    http://psicode.org/psi4manual/master/introduction.html#citing-psifour

    -----------------------------------------------------------------------


    Psi4 started on: Tuesday, 21 September 2021 01:26PM

    Process ID: 2893675
    Host:       skystd25.palmetto.clemson.edu
    PSIDATADIR: /home/maxbuskirk/.conda/envs/psifour/share/psi4
    Memory:     500.0 MiB
    Threads:    1
    
  ==> Input File <==

--------------------------------------------------------------------------
memory 32 GB

molecule mol {
1 1
C            1.425056003475     1.462642754007     0.500390918691
    C            0.506015663420     0.794494161141    -0.401329652114
    C           -0.687467939282     0.111436701139     0.119689098389
    C           -0.692581539549    -1.215206586661     0.598018780098
    C           -1.893694307828    -1.764950276072     1.073167245469
    C           -3.074057610775    -1.006414521991     1.073197801818
    C           -3.060848619460     0.313821303586     0.595154849046
    C           -1.872652042189     0.883945328722     0.115268157147
    H           -1.868369935673     1.913465700398    -0.256284723730
    H           -3.977173308145     0.910139701577     0.592425066336
    H           -4.004210231556    -1.443235151447     1.445376604402
    H           -1.899564874832    -2.793195615898     1.444360346993
    H            0.218900181462    -1.817463567391     0.603453054031
    C            0.893232151687     0.642597126731    -1.791247362760
    H            0.084032104657     0.280695992335    -2.437696761318
    H            1.409325351466     1.522526637924    -2.201968830067
    C            2.003838859184    -0.515109267042    -1.644254522177
    C            3.107054043743    -0.062171600837    -0.697927406458
    C            2.537516914692     0.308513718718     0.664289839188
    H            2.087311661567    -0.560201832608     1.170430820572
    H            3.285505009436     0.742789974697     1.346364020757
    H            3.837440432129    -0.880453363158    -0.574871839334
    H            3.650909309403     0.795401499632    -1.129510426513
    H            1.518678534004    -1.440585848322    -1.295339863661
    H            0.994314548954     1.686004938350     1.484344924865
    H            1.933618773431     2.326230628538     0.047837608444
    H            2.357006269054    -0.689629049008    -2.672887086946
}

set scf_type df
set basis cc-pVDZ
set reference rhf


mol.update_geometry()
mol.symmetrize(1e-3)

e, wfn = frequencies('mp2', return_wfn=True)
oeprop(wfn, "MULLIKEN_CHARGES")
mol.print_out()
print_variables()
--------------------------------------------------------------------------

  Memory set to  29.802 GiB by Python driver.

Scratch directory: /tmp/
gradient() will perform analytic gradient computation.

*** tstart() called on skystd25.palmetto.clemson.edu
*** at Tue Sep 21 13:26:41 2021

   => Loading Basis Set <=

    Name: CC-PVDZ
    Role: ORBITAL
    Keyword: BASIS
    atoms 1-8, 14, 17-19     entry C          line   138 file /home/maxbuskirk/.conda/envs/psifour/share/psi4/basis/cc-pvdz.gbs 
    atoms 9-13, 15-16, 20-27 entry H          line    22 file /home/maxbuskirk/.conda/envs/psifour/share/psi4/basis/cc-pvdz.gbs 


         ---------------------------------------------------------
                                   SCF
               by Justin Turney, Rob Parrish, Andy Simmonett
                          and Daniel G. A. Smith
                              RHF Reference
                        1 Threads,  30517 MiB Core
         ---------------------------------------------------------

  ==> Geometry <==

    Molecular point group: c1
    Full point group: C1

    Geometry (in Angstrom), charge = 1, multiplicity = 1:

       Center              X                  Y                   Z               Mass       
    ------------   -----------------  -----------------  -----------------  -----------------
         C            1.425056003475     1.462642754007     0.500390918691    12.000000000000
         C            0.506015663420     0.794494161141    -0.401329652114    12.000000000000
         C           -0.687467939282     0.111436701139     0.119689098389    12.000000000000
         C           -0.692581539549    -1.215206586661     0.598018780098    12.000000000000
         C           -1.893694307828    -1.764950276072     1.073167245469    12.000000000000
         C           -3.074057610775    -1.006414521991     1.073197801818    12.000000000000
         C           -3.060848619460     0.313821303586     0.595154849046    12.000000000000
         C           -1.872652042189     0.883945328722     0.115268157147    12.000000000000
         H           -1.868369935673     1.913465700398    -0.256284723730     1.007825032230
         H           -3.977173308145     0.910139701577     0.592425066336     1.007825032230
         H           -4.004210231556    -1.443235151447     1.445376604402     1.007825032230
         H           -1.899564874832    -2.793195615898     1.444360346993     1.007825032230
         H            0.218900181462    -1.817463567391     0.603453054031     1.007825032230
         C            0.893232151687     0.642597126731    -1.791247362760    12.000000000000
         H            0.084032104657     0.280695992335    -2.437696761318     1.007825032230
         H            1.409325351466     1.522526637924    -2.201968830067     1.007825032230
         C            2.003838859184    -0.515109267042    -1.644254522177    12.000000000000
         C            3.107054043743    -0.062171600837    -0.697927406458    12.000000000000
         C            2.537516914692     0.308513718718     0.664289839188    12.000000000000
         H            2.087311661567    -0.560201832608     1.170430820572     1.007825032230
         H            3.285505009436     0.742789974697     1.346364020757     1.007825032230
         H            3.837440432129    -0.880453363158    -0.574871839334     1.007825032230
         H            3.650909309403     0.795401499632    -1.129510426513     1.007825032230
         H            1.518678534004    -1.440585848322    -1.295339863661     1.007825032230
         H            0.994314548954     1.686004938350     1.484344924865     1.007825032230
         H            1.933618773431     2.326230628538     0.047837608444     1.007825032230
         H            2.357006269054    -0.689629049008    -2.672887086946     1.007825032230

  Running in c1 symmetry.

  Rotational constants: A =      0.06976  B =      0.01946  C =      0.01858 [cm^-1]
  Rotational constants: A =   2091.49884  B =    583.38325  C =    557.12294 [MHz]
  Nuclear repulsion =  675.412717919357533

  Charge       = 1
  Multiplicity = 1
  Electrons    = 86
  Nalpha       = 43
  Nbeta        = 43

  ==> Algorithm <==

  SCF Algorithm Type is DF.
  DIIS enabled.
  MOM disabled.
  Fractional occupation disabled.
  Guess Type is SAD.
  Energy threshold   = 1.00e-10
  Density threshold  = 1.00e-10
  Integral threshold = 1.00e-12

  ==> Primary Basis <==

  Basis Set: CC-PVDZ
    Blend: CC-PVDZ
    Number of shells: 117
    Number of basis functions: 243
    Number of Cartesian functions: 255
    Spherical Harmonics?: true
    Max angular momentum: 2

   => Loading Basis Set <=

    Name: (CC-PVDZ AUX)
    Role: JKFIT
    Keyword: DF_BASIS_SCF
    atoms 1-8, 14, 17-19     entry C          line   121 file /home/maxbuskirk/.conda/envs/psifour/share/psi4/basis/cc-pvdz-jkfit.gbs 
    atoms 9-13, 15-16, 20-27 entry H          line    51 file /home/maxbuskirk/.conda/envs/psifour/share/psi4/basis/cc-pvdz-jkfit.gbs 

  ==> Integral Setup <==

  DFHelper Memory: AOs need 0.497 GiB; user supplied 22.352 GiB. Using in-core AOs.

  ==> MemDFJK: Density-Fitted J/K Matrices <==

    J tasked:                   Yes
    K tasked:                   Yes
    wK tasked:                   No
    OpenMP threads:               1
    Memory [MiB]:             22888
    Algorithm:                 Core
    Schwarz Cutoff:           1E-12
    Mask sparsity (%):       8.4946
    Fitting Condition:        1E-10

   => Auxiliary Basis Set <=

  Basis Set: (CC-PVDZ AUX)
    Blend: CC-PVDZ-JKFIT
    Number of shells: 423
    Number of basis functions: 1185
    Number of Cartesian functions: 1347
    Spherical Harmonics?: true
    Max angular momentum: 3

  Minimum eigenvalue in the overlap matrix is 3.4426417184E-04.
  Reciprocal condition number of the overlap matrix is 4.9392128070E-05.
    Using symmetric orthogonalization.

  ==> Pre-Iterations <==

  SCF Guess: Superposition of Atomic Densities via on-the-fly atomic UHF (no occupation information).

   -------------------------
    Irrep   Nso     Nmo    
   -------------------------
     A        243     243 
   -------------------------
    Total     243     243
   -------------------------

  ==> Iterations <==

                           Total Energy        Delta E     RMS |[F,P]|

   @DF-RHF iter SAD:  -462.60199781559646   -4.62602e+02   0.00000e+00 
   @DF-RHF iter   1:  -462.70013907951727   -9.81413e-02   2.21737e-03 DIIS
   @DF-RHF iter   2:  -462.88913465177961   -1.88996e-01   9.36205e-04 DIIS
   @DF-RHF iter   3:  -462.91862202824166   -2.94874e-02   3.40869e-04 DIIS
   @DF-RHF iter   4:  -462.92356021360763   -4.93819e-03   1.04456e-04 DIIS
   @DF-RHF iter   5:  -462.92403842321693   -4.78210e-04   2.83151e-05 DIIS
   @DF-RHF iter   6:  -462.92410578263474   -6.73594e-05   9.91357e-06 DIIS
   @DF-RHF iter   7:  -462.92411481385773   -9.03122e-06   3.33073e-06 DIIS
   @DF-RHF iter   8:  -462.92411613488321   -1.32103e-06   1.20066e-06 DIIS
   @DF-RHF iter   9:  -462.92411629951152   -1.64628e-07   4.58014e-07 DIIS
   @DF-RHF iter  10:  -462.92411632547805   -2.59665e-08   2.35234e-07 DIIS
   @DF-RHF iter  11:  -462.92411633369068   -8.21262e-09   9.84417e-08 DIIS
   @DF-RHF iter  12:  -462.92411633525592   -1.56524e-09   4.07110e-08 DIIS
   @DF-RHF iter  13:  -462.92411633544879   -1.92870e-10   1.65778e-08 DIIS
   @DF-RHF iter  14:  -462.92411633548301   -3.42197e-11   5.12477e-09 DIIS
   @DF-RHF iter  15:  -462.92411633548591   -2.89901e-12   2.01209e-09 DIIS
   @DF-RHF iter  16:  -462.92411633548556    3.41061e-13   9.12245e-10 DIIS
   @DF-RHF iter  17:  -462.92411633548693   -1.36424e-12   3.84523e-10 DIIS
   @DF-RHF iter  18:  -462.92411633548625    6.82121e-13   1.32055e-10 DIIS
   @DF-RHF iter  19:  -462.92411633548738   -1.13687e-12   5.30193e-11 DIIS
  Energy and wave function converged.


  ==> Post-Iterations <==

    Orbital Energies [Eh]
    ---------------------

    Doubly Occupied:                                                      

       1A    -11.534318     2A    -11.423548     3A    -11.423495  
       4A    -11.418614     5A    -11.418505     6A    -11.417962  
       7A    -11.401600     8A    -11.399841     9A    -11.391397  
      10A    -11.384575    11A    -11.384440    12A    -11.379905  
      13A     -1.357264    14A     -1.290566    15A     -1.213825  
      16A     -1.197142    17A     -1.159559    18A     -1.151365  
      19A     -1.026870    20A     -1.015640    21A     -0.975683  
      22A     -0.959481    23A     -0.912864    24A     -0.857678  
      25A     -0.817071    26A     -0.814999    27A     -0.789921  
      28A     -0.775733    29A     -0.755858    30A     -0.749520  
      31A     -0.740932    32A     -0.730199    33A     -0.712577  
      34A     -0.696195    35A     -0.660568    36A     -0.649000  
      37A     -0.645125    38A     -0.642963    39A     -0.631083  
      40A     -0.627540    41A     -0.624797    42A     -0.479244  
      43A     -0.477538  

    Virtual:                                                              

      44A     -0.124540    45A     -0.019795    46A     -0.014927  
      47A      0.032324    48A      0.043588    49A      0.065968  
      50A      0.071640    51A      0.074401    52A      0.094934  
      53A      0.105416    54A      0.110187    55A      0.111981  
      56A      0.125466    57A      0.130148    58A      0.133113  
      59A      0.148209    60A      0.152405    61A      0.172593  
      62A      0.180217    63A      0.211012    64A      0.212722  
      65A      0.215123    66A      0.244926    67A      0.271511  
      68A      0.293883    69A      0.295596    70A      0.303596  
      71A      0.319281    72A      0.344878    73A      0.351637  
      74A      0.410884    75A      0.434725    76A      0.449039  
      77A      0.470613    78A      0.472528    79A      0.475055  
      80A      0.497455    81A      0.497863    82A      0.528890  
      83A      0.544848    84A      0.556482    85A      0.558516  
      86A      0.574822    87A      0.592921    88A      0.593334  
      89A      0.601054    90A      0.605945    91A      0.623366  
      92A      0.640064    93A      0.642406    94A      0.655059  
      95A      0.665708    96A      0.678283    97A      0.679425  
      98A      0.695434    99A      0.703275   100A      0.709049  
     101A      0.714040   102A      0.720910   103A      0.723637  
     104A      0.729326   105A      0.731228   106A      0.740960  
     107A      0.742883   108A      0.754539   109A      0.767641  
     110A      0.772357   111A      0.781430   112A      0.786588  
     113A      0.789046   114A      0.790879   115A      0.822427  
     116A      0.822899   117A      0.836667   118A      0.853315  
     119A      0.907734   120A      0.928023   121A      0.953402  
     122A      0.979272   123A      0.995607   124A      1.002104  
     125A      1.009165   126A      1.018318   127A      1.028777  
     128A      1.047536   129A      1.069504   130A      1.097890  
     131A      1.119540   132A      1.125987   133A      1.141806  
     134A      1.144362   135A      1.156591   136A      1.167251  
     137A      1.218137   138A      1.229549   139A      1.233659  
     140A      1.278308   141A      1.284354   142A      1.291124  
     143A      1.320730   144A      1.332082   145A      1.344896  
     146A      1.391978   147A      1.418888   148A      1.476619  
     149A      1.510791   150A      1.520444   151A      1.539233  
     152A      1.580203   153A      1.586962   154A      1.599038  
     155A      1.607998   156A      1.620799   157A      1.629439  
     158A      1.661055   159A      1.665745   160A      1.672535  
     161A      1.693579   162A      1.715191   163A      1.718966  
     164A      1.726752   165A      1.727387   166A      1.733305  
     167A      1.740732   168A      1.743053   169A      1.759810  
     170A      1.764767   171A      1.775908   172A      1.778352  
     173A      1.781831   174A      1.796930   175A      1.800052  
     176A      1.803957   177A      1.807508   178A      1.827740  
     179A      1.831173   180A      1.848471   181A      1.858008  
     182A      1.865746   183A      1.868895   184A      1.869411  
     185A      1.893115   186A      1.899022   187A      1.921570  
     188A      1.931732   189A      1.937615   190A      1.970012  
     191A      1.985434   192A      1.999175   193A      2.002234  
     194A      2.009244   195A      2.021498   196A      2.028103  
     197A      2.047293   198A      2.056250   199A      2.097149  
     200A      2.106349   201A      2.119946   202A      2.120163  
     203A      2.145809   204A      2.165415   205A      2.180940  
     206A      2.187391   207A      2.191531   208A      2.220040  
     209A      2.233490   210A      2.244541   211A      2.319034  
     212A      2.320988   213A      2.343377   214A      2.347305  
     215A      2.369269   216A      2.370175   217A      2.398561  
     218A      2.439966   219A      2.485069   220A      2.490781  
     221A      2.550401   222A      2.589977   223A      2.599624  
     224A      2.605386   225A      2.608701   226A      2.624561  
     227A      2.628398   228A      2.630479   229A      2.659184  
     230A      2.700549   231A      2.730489   232A      2.745344  
     233A      2.786572   234A      2.796460   235A      2.831775  
     236A      2.867908   237A      2.881698   238A      2.935836  
     239A      2.949953   240A      2.972966   241A      3.029871  
     242A      3.098346   243A      3.766457  

    Final Occupation by Irrep:
              A 
    DOCC [    43 ]

  @DF-RHF Final Energy:  -462.92411633548738

   => Energetics <=

    Nuclear Repulsion Energy =            675.4127179193575330
    One-Electron Energy =               -1950.4396716497003581
    Two-Electron Energy =                 812.1028373948555554
    Total Energy =                       -462.9241163354873834

Computation Completed


Properties will be evaluated at   0.000000,   0.000000,   0.000000 [a0]

Properties computed using the SCF density matrix

  Nuclear Dipole Moment: [e a0]
     X:     9.0257      Y:     0.5179      Z:    -2.2818

  Electronic Dipole Moment: [e a0]
     X:    -7.8493      Y:     0.0564      Z:     1.8041

  Dipole Moment: [e a0]
     X:     1.1764      Y:     0.5744      Z:    -0.4777     Total:     1.3936

  Dipole Moment: [D]
     X:     2.9901      Y:     1.4599      Z:    -1.2142     Total:     3.5421


*** tstop() called on skystd25.palmetto.clemson.edu at Tue Sep 21 13:26:54 2021
Module time:
	user time   =      11.61 seconds =       0.19 minutes
	system time =       0.55 seconds =       0.01 minutes
	total time  =         13 seconds =       0.22 minutes
Total time:
	user time   =      11.61 seconds =       0.19 minutes
	system time =       0.55 seconds =       0.01 minutes
	total time  =         13 seconds =       0.22 minutes

*** tstart() called on skystd25.palmetto.clemson.edu
*** at Tue Sep 21 13:26:54 2021


  //>>>>>>>>>>>>>>>>>>>>>>>>>>>>>>>>>>>//
  //               DFMP2               //
  //<<<<<<<<<<<<<<<<<<<<<<<<<<<<<<<<<<<//

   => Loading Basis Set <=

    Name: (CC-PVDZ AUX)
    Role: RIFIT
    Keyword: DF_BASIS_MP2
    atoms 1-8, 14, 17-19     entry C          line   159 file /home/maxbuskirk/.conda/envs/psifour/share/psi4/basis/cc-pvdz-ri.gbs 
    atoms 9-13, 15-16, 20-27 entry H          line    19 file /home/maxbuskirk/.conda/envs/psifour/share/psi4/basis/cc-pvdz-ri.gbs 

	 --------------------------------------------------------
	                          DF-MP2                         
	      2nd-Order Density-Fitted Moller-Plesset Theory     
	              RMP2 Wavefunction,   1 Threads             
	                                                         
	        Rob Parrish, Justin Turney, Andy Simmonett,      
	           Ed Hohenstein, and C. David Sherrill          
	 --------------------------------------------------------

   => Auxiliary Basis Set <=

  Basis Set: (CC-PVDZ AUX)
    Blend: CC-PVDZ-RI
    Number of shells: 306
    Number of basis functions: 882
    Number of Cartesian functions: 1017
    Spherical Harmonics?: true
    Max angular momentum: 3

	 --------------------------------------------------------
	                 NBF =   243, NAUX =   882
	 --------------------------------------------------------
	   CLASS    FOCC     OCC    AOCC    AVIR     VIR    FVIR
	   PAIRS       0      43      43     200     200       0
	 --------------------------------------------------------

  DFHelper Memory: AOs need 0.497 GiB; user supplied 22.352 GiB. Using in-core AOs.


         ------------------------------------------------------------
                                     CPHF                           
                                  Rob Parrish                       
         ------------------------------------------------------------

  ==> Geometry <==

    Molecular point group: c1
    Full point group: C1

    Geometry (in Angstrom), charge = 1, multiplicity = 1:

       Center              X                  Y                   Z               Mass       
    ------------   -----------------  -----------------  -----------------  -----------------
         C            1.425056003475     1.462642754007     0.500390918691    12.000000000000
         C            0.506015663420     0.794494161141    -0.401329652114    12.000000000000
         C           -0.687467939282     0.111436701139     0.119689098389    12.000000000000
         C           -0.692581539549    -1.215206586661     0.598018780098    12.000000000000
         C           -1.893694307828    -1.764950276072     1.073167245469    12.000000000000
         C           -3.074057610775    -1.006414521991     1.073197801818    12.000000000000
         C           -3.060848619460     0.313821303586     0.595154849046    12.000000000000
         C           -1.872652042189     0.883945328722     0.115268157147    12.000000000000
         H           -1.868369935673     1.913465700398    -0.256284723730     1.007825032230
         H           -3.977173308145     0.910139701577     0.592425066336     1.007825032230
         H           -4.004210231556    -1.443235151447     1.445376604402     1.007825032230
         H           -1.899564874832    -2.793195615898     1.444360346993     1.007825032230
         H            0.218900181462    -1.817463567391     0.603453054031     1.007825032230
         C            0.893232151687     0.642597126731    -1.791247362760    12.000000000000
         H            0.084032104657     0.280695992335    -2.437696761318     1.007825032230
         H            1.409325351466     1.522526637924    -2.201968830067     1.007825032230
         C            2.003838859184    -0.515109267042    -1.644254522177    12.000000000000
         C            3.107054043743    -0.062171600837    -0.697927406458    12.000000000000
         C            2.537516914692     0.308513718718     0.664289839188    12.000000000000
         H            2.087311661567    -0.560201832608     1.170430820572     1.007825032230
         H            3.285505009436     0.742789974697     1.346364020757     1.007825032230
         H            3.837440432129    -0.880453363158    -0.574871839334     1.007825032230
         H            3.650909309403     0.795401499632    -1.129510426513     1.007825032230
         H            1.518678534004    -1.440585848322    -1.295339863661     1.007825032230
         H            0.994314548954     1.686004938350     1.484344924865     1.007825032230
         H            1.933618773431     2.326230628538     0.047837608444     1.007825032230
         H            2.357006269054    -0.689629049008    -2.672887086946     1.007825032230

  Nuclear repulsion =  675.412717919357533
  Reference energy  = -462.924116335487383

  ==> Basis Set <==

  Basis Set: CC-PVDZ
    Blend: CC-PVDZ
    Number of shells: 117
    Number of basis functions: 243
    Number of Cartesian functions: 255
    Spherical Harmonics?: true
    Max angular momentum: 2

  ==> CGRSolver (by Rob Parrish) <==

   Number of roots    =         1
   Preconditioning    =    JACOBI
   Convergence cutoff =     1E-06
   Maximum iterations =       100

  ==> CPHFRHamiltonian (by Rob Parrish) <== 

  ==> MemDFJK: Density-Fitted J/K Matrices <==

    J tasked:                   Yes
    K tasked:                   Yes
    wK tasked:                   No
    OpenMP threads:               1
    Memory [MiB]:             22888
    Algorithm:                 Core
    Schwarz Cutoff:           1E-12
    Mask sparsity (%):       8.4946
    Fitting Condition:        1E-10

   => Auxiliary Basis Set <=

  Basis Set: (CC-PVDZ AUX)
    Blend: CC-PVDZ-JKFIT
    Number of shells: 423
    Number of basis functions: 1185
    Number of Cartesian functions: 1347
    Spherical Harmonics?: true
    Max angular momentum: 3

  ==> CPHF Iterations <==

  => Iterations <=

             Iter  Converged  Remaining    Residual
  CGR           1          0          1   1.159E-01
  CGR           2          0          1   3.698E-02
  CGR           3          0          1   1.740E-02
  CGR           4          0          1   4.246E-03
  CGR           5          0          1   1.666E-03
  CGR           6          0          1   7.360E-04
  CGR           7          0          1   2.843E-04
  CGR           8          0          1   8.198E-05
  CGR           9          0          1   3.842E-05
  CGR          10          0          1   1.531E-05
  CGR          11          0          1   7.662E-06
  CGR          12          0          1   2.761E-06
  CGR          13          1          0   8.163E-07

    CGRSolver converged.

  ==> DFCorrGrad: Density-Fitted Correlated Gradients <==

    OpenMP threads:              1
    Integrals threads:           1
    Memory [GiB]:           22.352
    Schwarz Cutoff:          0E+00
    Fitting Condition:       1E-10

   => Auxiliary Basis Set <=

  Basis Set: (CC-PVDZ AUX)
    Blend: CC-PVDZ-JKFIT
    Number of shells: 423
    Number of basis functions: 1185
    Number of Cartesian functions: 1347
    Spherical Harmonics?: true
    Max angular momentum: 3

	-----------------------------------------------------------
	 ==================> DF-MP2 Energies <==================== 
	-----------------------------------------------------------
	 Reference Energy          =    -462.9241163354873834 [Eh]
	 Singles Energy            =      -0.0000000000000000 [Eh]
	 Same-Spin Energy          =      -0.4191221014612589 [Eh]
	 Opposite-Spin Energy      =      -1.2117979091302256 [Eh]
	 Correlation Energy        =      -1.6309200105914845 [Eh]
	 Total Energy              =    -464.5550363460788503 [Eh]
	-----------------------------------------------------------
	 ================> DF-SCS-MP2 Energies <================== 
	-----------------------------------------------------------
	 SCS Same-Spin Scale       =       0.3333333333333333 [-]
	 SCS Opposite-Spin Scale   =       1.2000000000000000 [-]
	 SCS Same-Spin Energy      =      -0.1397073671537530 [Eh]
	 SCS Opposite-Spin Energy  =      -1.4541574909562707 [Eh]
	 SCS Correlation Energy    =      -1.5938648581100237 [Eh]
	 SCS Total Energy          =    -464.5179811935973930 [Eh]
	-----------------------------------------------------------


  -Total Gradient:
     Atom            X                  Y                   Z
    ------   -----------------  -----------------  -----------------
       1        0.000002916999    -0.000048419736    -0.000065221669
       2       -0.000004384495     0.000097217989     0.000036719854
       3        0.000044049014    -0.000044028143     0.000007939072
       4       -0.000001826172    -0.000011840268    -0.000015704835
       5       -0.000010016597     0.000004900642    -0.000004846370
       6        0.000004529126    -0.000009655822    -0.000005152893
       7        0.000004210886    -0.000000233671    -0.000001629427
       8        0.000009594678     0.000024716847     0.000014733368
       9       -0.000002537621     0.000000087726    -0.000003045587
      10        0.000002362996     0.000002963175     0.000000470452
      11        0.000001667835     0.000000060753     0.000002011753
      12        0.000004011220     0.000002113998     0.000009972088
      13       -0.000003048200    -0.000003735092    -0.000010849303
      14        0.000099860419    -0.000049284317     0.000136868313
      15       -0.000005538041    -0.000014048689    -0.000003603543
      16       -0.000043167820    -0.000000996012    -0.000060085989
      17       -0.000127277484     0.000116436456     0.000000960867
      18        0.000062164975    -0.000052438796     0.000029069477
      19       -0.000068592169     0.000050190159    -0.000024634851
      20        0.000000270828    -0.000013976362    -0.000002138491
      21        0.000008262574    -0.000020564062    -0.000011974994
      22        0.000001987640    -0.000002480907     0.000003267467
      23        0.000017854027     0.000003836861    -0.000000188565
      24       -0.000008674932    -0.000031686024    -0.000040503814
      25       -0.000018857476     0.000002910778    -0.000002904963
      26       -0.000015140034    -0.000011461645    -0.000027879063
      27        0.000045317831     0.000009414158     0.000038351649


*** tstop() called on skystd25.palmetto.clemson.edu at Tue Sep 21 13:27:44 2021
Module time:
	user time   =      47.43 seconds =       0.79 minutes
	system time =       2.48 seconds =       0.04 minutes
	total time  =         50 seconds =       0.83 minutes
Total time:
	user time   =      59.04 seconds =       0.98 minutes
	system time =       3.03 seconds =       0.05 minutes
	total time  =         63 seconds =       1.05 minutes

  Based on options and gradient (rms=3.76E-05), recommend projecting translations and projecting rotations.
hessian() will perform frequency computation by finite difference of analytic gradients.

         ----------------------------------------------------------
                                   FINDIF
                     R. A. King and Jonathon Misiewicz
         ---------------------------------------------------------

  Using finite-differences of gradients to determine vibrational frequencies and 
  normal modes. Resulting frequencies are only valid at stationary points.
    Generating geometries for use with 3-point formula.
    Displacement size will be 5.00e-03.
    Number of atoms is 27.
    Number of irreps is 1.
    Number of SALCs is 75.
    Translations projected? 1. Rotations projected? 1.
    Index of SALCs per irrep:
     1 :  0  1  2  3  4  5  6  7  8  9  10  11  12  13  14  15  16  17  18  19  20  21  22  23  24  25  26  27  28  29  30  31  32  33  34  35  36  37  38  39  40  41  42  43  44  45  46  47  48  49  50  51  52  53  54  55  56  57  58  59  60  61  62  63  64  65  66  67  68  69  70  71  72  73  74 
    Number of SALCs per irrep:
     Irrep 1: 75
    Number of geometries (including reference) is 151.
    Number of displacements per irrep:
      Irrep 1: 150

  //>>>>>>>>>>>>>>>>>>>>>>>>>>>>>>>>>>>//
  //   Loading displacement 1 of 151   //
  //<<<<<<<<<<<<<<<<<<<<<<<<<<<<<<<<<<<//

Scratch directory: /tmp/
gradient() will perform analytic gradient computation.

*** tstart() called on skystd25.palmetto.clemson.edu
*** at Tue Sep 21 13:27:44 2021

   => Loading Basis Set <=

    Name: CC-PVDZ
    Role: ORBITAL
    Keyword: BASIS
    atoms 1-8, 14, 17-19     entry C          line   138 file /home/maxbuskirk/.conda/envs/psifour/share/psi4/basis/cc-pvdz.gbs 
    atoms 9-13, 15-16, 20-27 entry H          line    22 file /home/maxbuskirk/.conda/envs/psifour/share/psi4/basis/cc-pvdz.gbs 


         ---------------------------------------------------------
                                   SCF
               by Justin Turney, Rob Parrish, Andy Simmonett
                          and Daniel G. A. Smith
                              RHF Reference
                        1 Threads,  30517 MiB Core
         ---------------------------------------------------------

  ==> Geometry <==

    Molecular point group: c1
    Full point group: C1

    Geometry (in Angstrom), charge = 1, multiplicity = 1:

       Center              X                  Y                   Z               Mass       
    ------------   -----------------  -----------------  -----------------  -----------------
         C            1.425056003475     1.462642754007     0.500390918691    12.000000000000
         C            0.506015663420     0.794494161141    -0.401329652114    12.000000000000
         C           -0.687467939282     0.111436701139     0.119689098389    12.000000000000
         C           -0.692581539549    -1.215206586661     0.598018780098    12.000000000000
         C           -1.893694307828    -1.764950276072     1.073167245469    12.000000000000
         C           -3.074057610775    -1.006414521991     1.073197801818    12.000000000000
         C           -3.060848619460     0.313821303586     0.595154849046    12.000000000000
         C           -1.872652042189     0.883945328722     0.115268157147    12.000000000000
         H           -1.868369935673     1.913465700398    -0.256284723730     1.007825032230
         H           -3.977173308145     0.910139701577     0.592425066336     1.007825032230
         H           -4.004210231556    -1.443235151447     1.445376604402     1.007825032230
         H           -1.899564874832    -2.793195615898     1.444360346993     1.007825032230
         H            0.218900181462    -1.817463567391     0.603453054031     1.007825032230
         C            0.893232151687     0.642597126731    -1.791247362760    12.000000000000
         H            0.084032104657     0.280695992335    -2.437696761318     1.007825032230
         H            1.409325351466     1.522526637924    -2.201968830067     1.007825032230
         C            2.003838859184    -0.515109267042    -1.644254522177    12.000000000000
         C            3.107054043743    -0.062171600837    -0.697927406458    12.000000000000
         C            2.537516914692     0.308513718718     0.664289839188    12.000000000000
         H            2.087311661567    -0.560201832608     1.170430820572     1.007825032230
         H            3.285505009436     0.742789974697     1.346364020757     1.007825032230
         H            3.837440432129    -0.880453363158    -0.574871839334     1.007825032230
         H            3.650909309403     0.795401499632    -1.129510426513     1.007825032230
         H            1.518678534004    -1.440585848322    -1.295339863661     1.007825032230
         H            0.994314548954     1.686004938350     1.484344924865     1.007825032230
         H            1.933618773431     2.326230628538     0.047837608444     1.007825032230
         H            2.357006269054    -0.689629049008    -2.672887086946     1.007825032230

  Running in c1 symmetry.

  Rotational constants: A =      0.06976  B =      0.01946  C =      0.01858 [cm^-1]
  Rotational constants: A =   2091.49884  B =    583.38325  C =    557.12294 [MHz]
  Nuclear repulsion =  675.412717919357533

  Charge       = 1
  Multiplicity = 1
  Electrons    = 86
  Nalpha       = 43
  Nbeta        = 43

  ==> Algorithm <==

  SCF Algorithm Type is DF.
  DIIS enabled.
  MOM disabled.
  Fractional occupation disabled.
  Guess Type is SAD.
  Energy threshold   = 1.00e-10
  Density threshold  = 1.00e-10
  Integral threshold = 1.00e-12

  ==> Primary Basis <==

  Basis Set: CC-PVDZ
    Blend: CC-PVDZ
    Number of shells: 117
    Number of basis functions: 243
    Number of Cartesian functions: 255
    Spherical Harmonics?: true
    Max angular momentum: 2

   => Loading Basis Set <=

    Name: (CC-PVDZ AUX)
    Role: JKFIT
    Keyword: DF_BASIS_SCF
    atoms 1-8, 14, 17-19     entry C          line   121 file /home/maxbuskirk/.conda/envs/psifour/share/psi4/basis/cc-pvdz-jkfit.gbs 
    atoms 9-13, 15-16, 20-27 entry H          line    51 file /home/maxbuskirk/.conda/envs/psifour/share/psi4/basis/cc-pvdz-jkfit.gbs 

  ==> Integral Setup <==

  DFHelper Memory: AOs need 0.497 GiB; user supplied 22.352 GiB. Using in-core AOs.

  ==> MemDFJK: Density-Fitted J/K Matrices <==

    J tasked:                   Yes
    K tasked:                   Yes
    wK tasked:                   No
    OpenMP threads:               1
    Memory [MiB]:             22888
    Algorithm:                 Core
    Schwarz Cutoff:           1E-12
    Mask sparsity (%):       8.4946
    Fitting Condition:        1E-10

   => Auxiliary Basis Set <=

  Basis Set: (CC-PVDZ AUX)
    Blend: CC-PVDZ-JKFIT
    Number of shells: 423
    Number of basis functions: 1185
    Number of Cartesian functions: 1347
    Spherical Harmonics?: true
    Max angular momentum: 3

  Minimum eigenvalue in the overlap matrix is 3.4426417184E-04.
  Reciprocal condition number of the overlap matrix is 4.9392128070E-05.
    Using symmetric orthogonalization.

  ==> Pre-Iterations <==

  SCF Guess: Superposition of Atomic Densities via on-the-fly atomic UHF (no occupation information).

   -------------------------
    Irrep   Nso     Nmo    
   -------------------------
     A        243     243 
   -------------------------
    Total     243     243
   -------------------------

  ==> Iterations <==

                           Total Energy        Delta E     RMS |[F,P]|

   @DF-RHF iter SAD:  -462.60199781584441   -4.62602e+02   0.00000e+00 
   @DF-RHF iter   1:  -462.70013907976499   -9.81413e-02   2.21737e-03 DIIS
   @DF-RHF iter   2:  -462.88913465202904   -1.88996e-01   9.36205e-04 DIIS
   @DF-RHF iter   3:  -462.91862202848802   -2.94874e-02   3.40869e-04 DIIS
   @DF-RHF iter   4:  -462.92356021385547   -4.93819e-03   1.04456e-04 DIIS
   @DF-RHF iter   5:  -462.92403842346323   -4.78210e-04   2.83151e-05 DIIS
   @DF-RHF iter   6:  -462.92410578288360   -6.73594e-05   9.91357e-06 DIIS
   @DF-RHF iter   7:  -462.92411481410358   -9.03122e-06   3.33073e-06 DIIS
   @DF-RHF iter   8:  -462.92411613512979   -1.32103e-06   1.20066e-06 DIIS
   @DF-RHF iter   9:  -462.92411629975982   -1.64630e-07   4.58014e-07 DIIS
   @DF-RHF iter  10:  -462.92411632572305   -2.59632e-08   2.35234e-07 DIIS
   @DF-RHF iter  11:  -462.92411633393817   -8.21512e-09   9.84417e-08 DIIS
   @DF-RHF iter  12:  -462.92411633550563   -1.56746e-09   4.07110e-08 DIIS
   @DF-RHF iter  13:  -462.92411633569543   -1.89800e-10   1.65778e-08 DIIS
   @DF-RHF iter  14:  -462.92411633572948   -3.40492e-11   5.12477e-09 DIIS
   @DF-RHF iter  15:  -462.92411633573221   -2.72848e-12   2.01209e-09 DIIS
   @DF-RHF iter  16:  -462.92411633573317   -9.66338e-13   9.12245e-10 DIIS
   @DF-RHF iter  17:  -462.92411633573306    1.13687e-13   3.84523e-10 DIIS
   @DF-RHF iter  18:  -462.92411633573198    1.08002e-12   1.32055e-10 DIIS
   @DF-RHF iter  19:  -462.92411633573431   -2.33058e-12   5.30192e-11 DIIS
  Energy and wave function converged.


  ==> Post-Iterations <==

    Orbital Energies [Eh]
    ---------------------

    Doubly Occupied:                                                      

       1A    -11.534318     2A    -11.423548     3A    -11.423495  
       4A    -11.418614     5A    -11.418505     6A    -11.417962  
       7A    -11.401600     8A    -11.399841     9A    -11.391397  
      10A    -11.384575    11A    -11.384440    12A    -11.379905  
      13A     -1.357264    14A     -1.290566    15A     -1.213825  
      16A     -1.197142    17A     -1.159559    18A     -1.151365  
      19A     -1.026870    20A     -1.015640    21A     -0.975683  
      22A     -0.959481    23A     -0.912864    24A     -0.857678  
      25A     -0.817071    26A     -0.814999    27A     -0.789921  
      28A     -0.775733    29A     -0.755858    30A     -0.749520  
      31A     -0.740932    32A     -0.730199    33A     -0.712577  
      34A     -0.696195    35A     -0.660568    36A     -0.649000  
      37A     -0.645125    38A     -0.642963    39A     -0.631083  
      40A     -0.627540    41A     -0.624797    42A     -0.479244  
      43A     -0.477538  

    Virtual:                                                              

      44A     -0.124540    45A     -0.019795    46A     -0.014927  
      47A      0.032324    48A      0.043588    49A      0.065968  
      50A      0.071640    51A      0.074401    52A      0.094934  
      53A      0.105416    54A      0.110187    55A      0.111981  
      56A      0.125466    57A      0.130148    58A      0.133113  
      59A      0.148209    60A      0.152405    61A      0.172593  
      62A      0.180217    63A      0.211012    64A      0.212722  
      65A      0.215123    66A      0.244926    67A      0.271511  
      68A      0.293883    69A      0.295596    70A      0.303596  
      71A      0.319281    72A      0.344878    73A      0.351637  
      74A      0.410884    75A      0.434725    76A      0.449039  
      77A      0.470613    78A      0.472528    79A      0.475055  
      80A      0.497455    81A      0.497863    82A      0.528890  
      83A      0.544848    84A      0.556482    85A      0.558516  
      86A      0.574822    87A      0.592921    88A      0.593334  
      89A      0.601054    90A      0.605945    91A      0.623366  
      92A      0.640064    93A      0.642406    94A      0.655059  
      95A      0.665708    96A      0.678283    97A      0.679425  
      98A      0.695434    99A      0.703275   100A      0.709049  
     101A      0.714040   102A      0.720910   103A      0.723637  
     104A      0.729326   105A      0.731228   106A      0.740960  
     107A      0.742883   108A      0.754539   109A      0.767641  
     110A      0.772357   111A      0.781430   112A      0.786588  
     113A      0.789046   114A      0.790879   115A      0.822427  
     116A      0.822899   117A      0.836667   118A      0.853315  
     119A      0.907734   120A      0.928023   121A      0.953402  
     122A      0.979272   123A      0.995607   124A      1.002104  
     125A      1.009165   126A      1.018318   127A      1.028777  
     128A      1.047536   129A      1.069504   130A      1.097890  
     131A      1.119540   132A      1.125987   133A      1.141806  
     134A      1.144362   135A      1.156591   136A      1.167251  
     137A      1.218137   138A      1.229549   139A      1.233659  
     140A      1.278308   141A      1.284354   142A      1.291124  
     143A      1.320730   144A      1.332082   145A      1.344896  
     146A      1.391978   147A      1.418888   148A      1.476619  
     149A      1.510791   150A      1.520444   151A      1.539233  
     152A      1.580203   153A      1.586962   154A      1.599038  
     155A      1.607998   156A      1.620799   157A      1.629439  
     158A      1.661055   159A      1.665745   160A      1.672535  
     161A      1.693579   162A      1.715191   163A      1.718966  
     164A      1.726752   165A      1.727387   166A      1.733305  
     167A      1.740732   168A      1.743053   169A      1.759810  
     170A      1.764767   171A      1.775908   172A      1.778352  
     173A      1.781831   174A      1.796930   175A      1.800052  
     176A      1.803957   177A      1.807508   178A      1.827740  
     179A      1.831173   180A      1.848471   181A      1.858008  
     182A      1.865746   183A      1.868895   184A      1.869411  
     185A      1.893115   186A      1.899022   187A      1.921570  
     188A      1.931732   189A      1.937615   190A      1.970012  
     191A      1.985434   192A      1.999175   193A      2.002234  
     194A      2.009244   195A      2.021498   196A      2.028103  
     197A      2.047293   198A      2.056250   199A      2.097149  
     200A      2.106349   201A      2.119946   202A      2.120163  
     203A      2.145809   204A      2.165415   205A      2.180940  
     206A      2.187391   207A      2.191531   208A      2.220040  
     209A      2.233490   210A      2.244541   211A      2.319034  
     212A      2.320988   213A      2.343377   214A      2.347305  
     215A      2.369269   216A      2.370175   217A      2.398561  
     218A      2.439966   219A      2.485069   220A      2.490781  
     221A      2.550401   222A      2.589977   223A      2.599624  
     224A      2.605386   225A      2.608701   226A      2.624561  
     227A      2.628398   228A      2.630479   229A      2.659184  
     230A      2.700549   231A      2.730489   232A      2.745344  
     233A      2.786572   234A      2.796460   235A      2.831775  
     236A      2.867908   237A      2.881698   238A      2.935836  
     239A      2.949953   240A      2.972966   241A      3.029871  
     242A      3.098346   243A      3.766457  

    Final Occupation by Irrep:
              A 
    DOCC [    43 ]

  @DF-RHF Final Energy:  -462.92411633573431

   => Energetics <=

    Nuclear Repulsion Energy =            675.4127179193575330
    One-Electron Energy =               -1950.4396716500036746
    Two-Electron Energy =                 812.1028373949119441
    Total Energy =                       -462.9241163357343112

Computation Completed


Properties will be evaluated at   0.000000,   0.000000,   0.000000 [a0]

Properties computed using the SCF density matrix

  Nuclear Dipole Moment: [e a0]
     X:     9.0257      Y:     0.5179      Z:    -2.2818

  Electronic Dipole Moment: [e a0]
     X:    -7.8493      Y:     0.0564      Z:     1.8041

  Dipole Moment: [e a0]
     X:     1.1764      Y:     0.5744      Z:    -0.4777     Total:     1.3936

  Dipole Moment: [D]
     X:     2.9901      Y:     1.4599      Z:    -1.2142     Total:     3.5421


*** tstop() called on skystd25.palmetto.clemson.edu at Tue Sep 21 13:27:56 2021
Module time:
	user time   =      11.64 seconds =       0.19 minutes
	system time =       0.54 seconds =       0.01 minutes
	total time  =         12 seconds =       0.20 minutes
Total time:
	user time   =      70.85 seconds =       1.18 minutes
	system time =       3.60 seconds =       0.06 minutes
	total time  =         75 seconds =       1.25 minutes

*** tstart() called on skystd25.palmetto.clemson.edu
*** at Tue Sep 21 13:27:56 2021


  //>>>>>>>>>>>>>>>>>>>>>>>>>>>>>>>>>>>//
  //               DFMP2               //
  //<<<<<<<<<<<<<<<<<<<<<<<<<<<<<<<<<<<//

   => Loading Basis Set <=

    Name: (CC-PVDZ AUX)
    Role: RIFIT
    Keyword: DF_BASIS_MP2
    atoms 1-8, 14, 17-19     entry C          line   159 file /home/maxbuskirk/.conda/envs/psifour/share/psi4/basis/cc-pvdz-ri.gbs 
    atoms 9-13, 15-16, 20-27 entry H          line    19 file /home/maxbuskirk/.conda/envs/psifour/share/psi4/basis/cc-pvdz-ri.gbs 

	 --------------------------------------------------------
	                          DF-MP2                         
	      2nd-Order Density-Fitted Moller-Plesset Theory     
	              RMP2 Wavefunction,   1 Threads             
	                                                         
	        Rob Parrish, Justin Turney, Andy Simmonett,      
	           Ed Hohenstein, and C. David Sherrill          
	 --------------------------------------------------------

   => Auxiliary Basis Set <=

  Basis Set: (CC-PVDZ AUX)
    Blend: CC-PVDZ-RI
    Number of shells: 306
    Number of basis functions: 882
    Number of Cartesian functions: 1017
    Spherical Harmonics?: true
    Max angular momentum: 3

	 --------------------------------------------------------
	                 NBF =   243, NAUX =   882
	 --------------------------------------------------------
	   CLASS    FOCC     OCC    AOCC    AVIR     VIR    FVIR
	   PAIRS       0      43      43     200     200       0
	 --------------------------------------------------------

  DFHelper Memory: AOs need 0.497 GiB; user supplied 22.352 GiB. Using in-core AOs.


         ------------------------------------------------------------
                                     CPHF                           
                                  Rob Parrish                       
         ------------------------------------------------------------

  ==> Geometry <==

    Molecular point group: c1
    Full point group: C1

    Geometry (in Angstrom), charge = 1, multiplicity = 1:

       Center              X                  Y                   Z               Mass       
    ------------   -----------------  -----------------  -----------------  -----------------
         C            1.425056003475     1.462642754007     0.500390918691    12.000000000000
         C            0.506015663420     0.794494161141    -0.401329652114    12.000000000000
         C           -0.687467939282     0.111436701139     0.119689098389    12.000000000000
         C           -0.692581539549    -1.215206586661     0.598018780098    12.000000000000
         C           -1.893694307828    -1.764950276072     1.073167245469    12.000000000000
         C           -3.074057610775    -1.006414521991     1.073197801818    12.000000000000
         C           -3.060848619460     0.313821303586     0.595154849046    12.000000000000
         C           -1.872652042189     0.883945328722     0.115268157147    12.000000000000
         H           -1.868369935673     1.913465700398    -0.256284723730     1.007825032230
         H           -3.977173308145     0.910139701577     0.592425066336     1.007825032230
         H           -4.004210231556    -1.443235151447     1.445376604402     1.007825032230
         H           -1.899564874832    -2.793195615898     1.444360346993     1.007825032230
         H            0.218900181462    -1.817463567391     0.603453054031     1.007825032230
         C            0.893232151687     0.642597126731    -1.791247362760    12.000000000000
         H            0.084032104657     0.280695992335    -2.437696761318     1.007825032230
         H            1.409325351466     1.522526637924    -2.201968830067     1.007825032230
         C            2.003838859184    -0.515109267042    -1.644254522177    12.000000000000
         C            3.107054043743    -0.062171600837    -0.697927406458    12.000000000000
         C            2.537516914692     0.308513718718     0.664289839188    12.000000000000
         H            2.087311661567    -0.560201832608     1.170430820572     1.007825032230
         H            3.285505009436     0.742789974697     1.346364020757     1.007825032230
         H            3.837440432129    -0.880453363158    -0.574871839334     1.007825032230
         H            3.650909309403     0.795401499632    -1.129510426513     1.007825032230
         H            1.518678534004    -1.440585848322    -1.295339863661     1.007825032230
         H            0.994314548954     1.686004938350     1.484344924865     1.007825032230
         H            1.933618773431     2.326230628538     0.047837608444     1.007825032230
         H            2.357006269054    -0.689629049008    -2.672887086946     1.007825032230

  Nuclear repulsion =  675.412717919357533
  Reference energy  = -462.924116335734311

  ==> Basis Set <==

  Basis Set: CC-PVDZ
    Blend: CC-PVDZ
    Number of shells: 117
    Number of basis functions: 243
    Number of Cartesian functions: 255
    Spherical Harmonics?: true
    Max angular momentum: 2

  ==> CGRSolver (by Rob Parrish) <==

   Number of roots    =         1
   Preconditioning    =    JACOBI
   Convergence cutoff =     1E-06
   Maximum iterations =       100

  ==> CPHFRHamiltonian (by Rob Parrish) <== 

  ==> MemDFJK: Density-Fitted J/K Matrices <==

    J tasked:                   Yes
    K tasked:                   Yes
    wK tasked:                   No
    OpenMP threads:               1
    Memory [MiB]:             22888
    Algorithm:                 Core
    Schwarz Cutoff:           1E-12
    Mask sparsity (%):       8.4946
    Fitting Condition:        1E-10

   => Auxiliary Basis Set <=

  Basis Set: (CC-PVDZ AUX)
    Blend: CC-PVDZ-JKFIT
    Number of shells: 423
    Number of basis functions: 1185
    Number of Cartesian functions: 1347
    Spherical Harmonics?: true
    Max angular momentum: 3

  ==> CPHF Iterations <==

  => Iterations <=

             Iter  Converged  Remaining    Residual
  CGR           1          0          1   1.159E-01
  CGR           2          0          1   3.698E-02
  CGR           3          0          1   1.740E-02
  CGR           4          0          1   4.246E-03
  CGR           5          0          1   1.666E-03
  CGR           6          0          1   7.360E-04
  CGR           7          0          1   2.843E-04
  CGR           8          0          1   8.198E-05
  CGR           9          0          1   3.842E-05
  CGR          10          0          1   1.531E-05
  CGR          11          0          1   7.662E-06
  CGR          12          0          1   2.761E-06
  CGR          13          1          0   8.163E-07

    CGRSolver converged.

  ==> DFCorrGrad: Density-Fitted Correlated Gradients <==

    OpenMP threads:              1
    Integrals threads:           1
    Memory [GiB]:           22.352
    Schwarz Cutoff:          0E+00
    Fitting Condition:       1E-10

   => Auxiliary Basis Set <=

  Basis Set: (CC-PVDZ AUX)
    Blend: CC-PVDZ-JKFIT
    Number of shells: 423
    Number of basis functions: 1185
    Number of Cartesian functions: 1347
    Spherical Harmonics?: true
    Max angular momentum: 3

	-----------------------------------------------------------
	 ==================> DF-MP2 Energies <==================== 
	-----------------------------------------------------------
	 Reference Energy          =    -462.9241163357343112 [Eh]
	 Singles Energy            =      -0.0000000000000000 [Eh]
	 Same-Spin Energy          =      -0.4191221014624797 [Eh]
	 Opposite-Spin Energy      =      -1.2117979091326372 [Eh]
	 Correlation Energy        =      -1.6309200105951169 [Eh]
	 Total Energy              =    -464.5550363463294161 [Eh]
	-----------------------------------------------------------
	 ================> DF-SCS-MP2 Energies <================== 
	-----------------------------------------------------------
	 SCS Same-Spin Scale       =       0.3333333333333333 [-]
	 SCS Opposite-Spin Scale   =       1.2000000000000000 [-]
	 SCS Same-Spin Energy      =      -0.1397073671541599 [Eh]
	 SCS Opposite-Spin Energy  =      -1.4541574909591646 [Eh]
	 SCS Correlation Energy    =      -1.5938648581133246 [Eh]
	 SCS Total Energy          =    -464.5179811938476178 [Eh]
	-----------------------------------------------------------


  -Total Gradient:
     Atom            X                  Y                   Z
    ------   -----------------  -----------------  -----------------
       1        0.000002917355    -0.000048411784    -0.000065210944
       2       -0.000004372191     0.000097228326     0.000036704650
       3        0.000044022611    -0.000044044978     0.000007943584
       4       -0.000001820356    -0.000011832099    -0.000015706655
       5       -0.000010004087     0.000004904527    -0.000004850522
       6        0.000004526529    -0.000009658439    -0.000005151480
       7        0.000004212251    -0.000000228946    -0.000001632043
       8        0.000009601106     0.000024716981     0.000014732351
       9       -0.000002535828     0.000000071319    -0.000003039723
      10        0.000002371950     0.000002956884     0.000000470631
      11        0.000001676111     0.000000064658     0.000002008420
      12        0.000004010648     0.000002124523     0.000009968444
      13       -0.000003065843    -0.000003720187    -0.000010850385
      14        0.000099860182    -0.000049278906     0.000136871562
      15       -0.000005524707    -0.000014042170    -0.000003589901
      16       -0.000043177171    -0.000001010389    -0.000060077675
      17       -0.000127281742     0.000116424968     0.000000959231
      18        0.000062187754    -0.000052443236     0.000029064829
      19       -0.000068599679     0.000050187845    -0.000024620856
      20        0.000000278943    -0.000013962913    -0.000002146265
      21        0.000008249479    -0.000020570572    -0.000011985828
      22        0.000001974653    -0.000002468728     0.000003265111
      23        0.000017848332     0.000003825442    -0.000000182896
      24       -0.000008667127    -0.000031671848    -0.000040509699
      25       -0.000018848324     0.000002903845    -0.000002933349
      26       -0.000015152730    -0.000011481086    -0.000027869724
      27        0.000045311885     0.000009416964     0.000038369133


*** tstop() called on skystd25.palmetto.clemson.edu at Tue Sep 21 13:28:47 2021
Module time:
	user time   =      48.02 seconds =       0.80 minutes
	system time =       2.45 seconds =       0.04 minutes
	total time  =         51 seconds =       0.85 minutes
Total time:
	user time   =     118.87 seconds =       1.98 minutes
	system time =       6.05 seconds =       0.10 minutes
	total time  =        126 seconds =       2.10 minutes

  //>>>>>>>>>>>>>>>>>>>>>>>>>>>>>>>>>>>//
  //   Loading displacement 2 of 151   //
  //<<<<<<<<<<<<<<<<<<<<<<<<<<<<<<<<<<<//

Scratch directory: /tmp/
gradient() will perform analytic gradient computation.

*** tstart() called on skystd25.palmetto.clemson.edu
*** at Tue Sep 21 13:28:47 2021

   => Loading Basis Set <=

    Name: CC-PVDZ
    Role: ORBITAL
    Keyword: BASIS
    atoms 1-8, 14, 17-19     entry C          line   138 file /home/maxbuskirk/.conda/envs/psifour/share/psi4/basis/cc-pvdz.gbs 
    atoms 9-13, 15-16, 20-27 entry H          line    22 file /home/maxbuskirk/.conda/envs/psifour/share/psi4/basis/cc-pvdz.gbs 


         ---------------------------------------------------------
                                   SCF
               by Justin Turney, Rob Parrish, Andy Simmonett
                          and Daniel G. A. Smith
                              RHF Reference
                        1 Threads,  30517 MiB Core
         ---------------------------------------------------------

  ==> Geometry <==

    Molecular point group: c1
    Full point group: C1

    Geometry (in Angstrom), charge = 1, multiplicity = 1:

       Center              X                  Y                   Z               Mass       
    ------------   -----------------  -----------------  -----------------  -----------------
         C            1.424337985008     1.462607573556     0.500399174163    12.000000000000
         C            0.506089454865     0.794489566191    -0.401322968214    12.000000000000
         C           -0.687403463995     0.111448747889     0.119696259345    12.000000000000
         C           -0.692539536729    -1.215200962069     0.598007889010    12.000000000000
         C           -1.893659344892    -1.764927232354     1.073158712296    12.000000000000
         C           -3.074007554305    -1.006367991915     1.073209299840    12.000000000000
         C           -3.060776215665     0.313874090828     0.595184245293    12.000000000000
         C           -1.872572231864     0.883981018468     0.115295579430    12.000000000000
         H           -1.868272688843     1.913506372525    -0.256243295021     1.007825032230
         H           -3.977089061254     0.910210759006     0.592470114713     1.007825032230
         H           -4.004165812962    -1.443175189392     1.445389777102     1.007825032230
         H           -1.899547325983    -2.793177518047     1.444337837819     1.007825032230
         H            0.218930245212    -1.817476153507     0.603426469556     1.007825032230
         C            0.893291515607     0.642603783978    -1.791245927912    12.000000000000
         H            0.084078963001     0.280727567863    -2.437693622456     1.007825032230
         H            1.409398853943     1.522528627794    -2.201959628764     1.007825032230
         C            2.003876393317    -0.515126713384    -1.644277990393    12.000000000000
         C            3.107108355563    -0.062223905763    -0.697953749613    12.000000000000
         C            2.537589780170     0.308454167202     0.664273225173    12.000000000000
         H            2.087371394596    -0.560259329201     1.170406052398     1.007825032230
         H            3.285592112927     0.742706237007     1.346347192127     1.007825032230
         H            3.837479471587    -0.880521879601    -0.574915336231     1.007825032230
         H            3.650977143752     0.795344259451    -1.129529535934     1.007825032230
         H            1.518700516128    -1.440598399808    -1.295371973368     1.007825032230
         H            0.994421552675     1.685964908672     1.484359761246     1.007825032230
         H            1.933726728927     2.326191501092     0.047853469280     1.007825032230
         H            2.357031890073    -0.689639493193    -2.672915833372     1.007825032230

  Running in c1 symmetry.

  Rotational constants: A =      0.06977  B =      0.01946  C =      0.01858 [cm^-1]
  Rotational constants: A =   2091.50765  B =    583.40476  C =    557.13683 [MHz]
  Nuclear repulsion =  675.417150553192187

  Charge       = 1
  Multiplicity = 1
  Electrons    = 86
  Nalpha       = 43
  Nbeta        = 43

  ==> Algorithm <==

  SCF Algorithm Type is DF.
  DIIS enabled.
  MOM disabled.
  Fractional occupation disabled.
  Guess Type is SAD.
  Energy threshold   = 1.00e-10
  Density threshold  = 1.00e-10
  Integral threshold = 1.00e-12

  ==> Primary Basis <==

  Basis Set: CC-PVDZ
    Blend: CC-PVDZ
    Number of shells: 117
    Number of basis functions: 243
    Number of Cartesian functions: 255
    Spherical Harmonics?: true
    Max angular momentum: 2

   => Loading Basis Set <=

    Name: (CC-PVDZ AUX)
    Role: JKFIT
    Keyword: DF_BASIS_SCF
    atoms 1-8, 14, 17-19     entry C          line   121 file /home/maxbuskirk/.conda/envs/psifour/share/psi4/basis/cc-pvdz-jkfit.gbs 
    atoms 9-13, 15-16, 20-27 entry H          line    51 file /home/maxbuskirk/.conda/envs/psifour/share/psi4/basis/cc-pvdz-jkfit.gbs 

  ==> Integral Setup <==

  DFHelper Memory: AOs need 0.497 GiB; user supplied 22.352 GiB. Using in-core AOs.

  ==> MemDFJK: Density-Fitted J/K Matrices <==

    J tasked:                   Yes
    K tasked:                   Yes
    wK tasked:                   No
    OpenMP threads:               1
    Memory [MiB]:             22888
    Algorithm:                 Core
    Schwarz Cutoff:           1E-12
    Mask sparsity (%):       8.4946
    Fitting Condition:        1E-10

   => Auxiliary Basis Set <=

  Basis Set: (CC-PVDZ AUX)
    Blend: CC-PVDZ-JKFIT
    Number of shells: 423
    Number of basis functions: 1185
    Number of Cartesian functions: 1347
    Spherical Harmonics?: true
    Max angular momentum: 3

  Minimum eigenvalue in the overlap matrix is 3.4426360420E-04.
  Reciprocal condition number of the overlap matrix is 4.9392651492E-05.
    Using symmetric orthogonalization.

  ==> Pre-Iterations <==

  SCF Guess: Superposition of Atomic Densities via on-the-fly atomic UHF (no occupation information).

   -------------------------
    Irrep   Nso     Nmo    
   -------------------------
     A        243     243 
   -------------------------
    Total     243     243
   -------------------------

  ==> Iterations <==

                           Total Energy        Delta E     RMS |[F,P]|

   @DF-RHF iter SAD:  -462.60200917407644   -4.62602e+02   0.00000e+00 
   @DF-RHF iter   1:  -462.70017029578469   -9.81611e-02   2.21700e-03 DIIS
   @DF-RHF iter   2:  -462.88914793785028   -1.88978e-01   9.35705e-04 DIIS
   @DF-RHF iter   3:  -462.91860692342902   -2.94590e-02   3.40755e-04 DIIS
   @DF-RHF iter   4:  -462.92354138829000   -4.93446e-03   1.04428e-04 DIIS
   @DF-RHF iter   5:  -462.92401927668732   -4.77888e-04   2.83078e-05 DIIS
   @DF-RHF iter   6:  -462.92408656711450   -6.72904e-05   9.90829e-06 DIIS
   @DF-RHF iter   7:  -462.92409558934116   -9.02223e-06   3.32946e-06 DIIS
   @DF-RHF iter   8:  -462.92409690918515   -1.31984e-06   1.20056e-06 DIIS
   @DF-RHF iter   9:  -462.92409707375396   -1.64569e-07   4.57721e-07 DIIS
   @DF-RHF iter  10:  -462.92409709969843   -2.59445e-08   2.35087e-07 DIIS
   @DF-RHF iter  11:  -462.92409710790071   -8.20228e-09   9.84409e-08 DIIS
   @DF-RHF iter  12:  -462.92409710947186   -1.57115e-09   4.06890e-08 DIIS
   @DF-RHF iter  13:  -462.92409710966069   -1.88834e-10   1.65686e-08 DIIS
   @DF-RHF iter  14:  -462.92409710969150   -3.08091e-11   5.11926e-09 DIIS
   @DF-RHF iter  15:  -462.92409710969559   -4.09273e-12   2.00908e-09 DIIS
   @DF-RHF iter  16:  -462.92409710969673   -1.13687e-12   9.11037e-10 DIIS
   @DF-RHF iter  17:  -462.92409710969594    7.95808e-13   3.84202e-10 DIIS
   @DF-RHF iter  18:  -462.92409710969741   -1.47793e-12   1.31953e-10 DIIS
   @DF-RHF iter  19:  -462.92409710969588    1.53477e-12   5.29901e-11 DIIS
  Energy and wave function converged.


  ==> Post-Iterations <==

    Orbital Energies [Eh]
    ---------------------

    Doubly Occupied:                                                      

       1A    -11.534264     2A    -11.423545     3A    -11.423487  
       4A    -11.418719     5A    -11.418494     6A    -11.417939  
       7A    -11.401582     8A    -11.399822     9A    -11.391422  
      10A    -11.384562    11A    -11.384427    12A    -11.379890  
      13A     -1.357293    14A     -1.290550    15A     -1.213839  
      16A     -1.197125    17A     -1.159544    18A     -1.151370  
      19A     -1.026914    20A     -1.015616    21A     -0.975673  
      22A     -0.959482    23A     -0.912853    24A     -0.857705  
      25A     -0.817065    26A     -0.814988    27A     -0.789917  
      28A     -0.775742    29A     -0.755879    30A     -0.749503  
      31A     -0.741005    32A     -0.730185    33A     -0.712540  
      34A     -0.696217    35A     -0.660474    36A     -0.649003  
      37A     -0.645118    38A     -0.642968    39A     -0.631067  
      40A     -0.627570    41A     -0.624801    42A     -0.479232  
      43A     -0.477525  

    Virtual:                                                              

      44A     -0.124518    45A     -0.019776    46A     -0.014915  
      47A      0.032328    48A      0.043594    49A      0.065974  
      50A      0.071625    51A      0.074400    52A      0.094922  
      53A      0.105416    54A      0.110187    55A      0.111975  
      56A      0.125458    57A      0.130140    58A      0.133113  
      59A      0.148188    60A      0.152411    61A      0.172567  
      62A      0.180153    63A      0.211064    64A      0.212708  
      65A      0.215132    66A      0.244908    67A      0.271505  
      68A      0.293896    69A      0.295655    70A      0.303598  
      71A      0.319277    72A      0.344889    73A      0.351633  
      74A      0.410876    75A      0.434710    76A      0.449055  
      77A      0.470619    78A      0.472549    79A      0.475071  
      80A      0.497476    81A      0.497850    82A      0.528903  
      83A      0.544881    84A      0.556497    85A      0.558516  
      86A      0.574833    87A      0.592920    88A      0.593346  
      89A      0.601070    90A      0.605860    91A      0.623343  
      92A      0.640063    93A      0.642395    94A      0.655056  
      95A      0.665676    96A      0.678297    97A      0.679454  
      98A      0.695444    99A      0.703310   100A      0.709046  
     101A      0.714052   102A      0.720893   103A      0.723654  
     104A      0.729376   105A      0.731247   106A      0.740973  
     107A      0.742885   108A      0.754531   109A      0.767677  
     110A      0.772402   111A      0.781410   112A      0.786556  
     113A      0.789062   114A      0.790886   115A      0.822461  
     116A      0.822912   117A      0.836688   118A      0.853329  
     119A      0.907754   120A      0.928042   121A      0.953409  
     122A      0.979286   123A      0.995634   124A      1.002122  
     125A      1.009179   126A      1.018323   127A      1.028792  
     128A      1.047539   129A      1.069487   130A      1.097899  
     131A      1.119562   132A      1.126000   133A      1.141810  
     134A      1.144375   135A      1.156606   136A      1.167239  
     137A      1.218137   138A      1.229525   139A      1.233663  
     140A      1.278322   141A      1.284308   142A      1.291151  
     143A      1.320780   144A      1.332138   145A      1.344859  
     146A      1.391988   147A      1.418882   148A      1.476602  
     149A      1.510780   150A      1.520450   151A      1.539186  
     152A      1.580200   153A      1.586973   154A      1.599016  
     155A      1.608027   156A      1.620814   157A      1.629355  
     158A      1.661004   159A      1.665623   160A      1.672510  
     161A      1.693652   162A      1.715182   163A      1.718940  
     164A      1.726750   165A      1.727387   166A      1.733323  
     167A      1.740703   168A      1.743072   169A      1.759829  
     170A      1.764730   171A      1.775914   172A      1.778375  
     173A      1.781895   174A      1.796912   175A      1.800062  
     176A      1.803929   177A      1.807492   178A      1.827753  
     179A      1.831166   180A      1.848443   181A      1.858015  
     182A      1.865773   183A      1.868879   184A      1.869353  
     185A      1.893129   186A      1.899038   187A      1.921556  
     188A      1.931753   189A      1.937636   190A      1.969946  
     191A      1.985455   192A      1.999181   193A      2.002257  
     194A      2.009248   195A      2.021508   196A      2.028127  
     197A      2.047300   198A      2.056343   199A      2.097230  
     200A      2.106370   201A      2.119984   202A      2.120216  
     203A      2.145852   204A      2.165422   205A      2.180905  
     206A      2.187309   207A      2.191552   208A      2.220043  
     209A      2.233541   210A      2.244605   211A      2.319112  
     212A      2.320952   213A      2.343309   214A      2.347340  
     215A      2.369271   216A      2.370217   217A      2.398499  
     218A      2.439917   219A      2.485013   220A      2.490817  
     221A      2.550410   222A      2.589974   223A      2.599726  
     224A      2.605365   225A      2.608722   226A      2.624576  
     227A      2.628509   228A      2.630458   229A      2.659319  
     230A      2.700352   231A      2.730575   232A      2.745273  
     233A      2.786691   234A      2.796478   235A      2.831742  
     236A      2.867919   237A      2.881715   238A      2.935920  
     239A      2.949953   240A      2.973117   241A      3.030004  
     242A      3.098393   243A      3.766480  

    Final Occupation by Irrep:
              A 
    DOCC [    43 ]

  @DF-RHF Final Energy:  -462.92409710969588

   => Energetics <=

    Nuclear Repulsion Energy =            675.4171505531921866
    One-Electron Energy =               -1950.4486707115243007
    Two-Electron Energy =                 812.1074230486362922
    Total Energy =                       -462.9240971096958219

Computation Completed


Properties will be evaluated at   0.000000,   0.000000,   0.000000 [a0]

Properties computed using the SCF density matrix

  Nuclear Dipole Moment: [e a0]
     X:     9.0266      Y:     0.5178      Z:    -2.2818

  Electronic Dipole Moment: [e a0]
     X:    -7.8490      Y:     0.0565      Z:     1.8046

  Dipole Moment: [e a0]
     X:     1.1776      Y:     0.5743      Z:    -0.4773     Total:     1.3944

  Dipole Moment: [D]
     X:     2.9931      Y:     1.4598      Z:    -1.2131     Total:     3.5441


*** tstop() called on skystd25.palmetto.clemson.edu at Tue Sep 21 13:28:59 2021
Module time:
	user time   =      11.11 seconds =       0.19 minutes
	system time =       0.53 seconds =       0.01 minutes
	total time  =         12 seconds =       0.20 minutes
Total time:
	user time   =     129.99 seconds =       2.17 minutes
	system time =       6.60 seconds =       0.11 minutes
	total time  =        138 seconds =       2.30 minutes

*** tstart() called on skystd25.palmetto.clemson.edu
*** at Tue Sep 21 13:28:59 2021


  //>>>>>>>>>>>>>>>>>>>>>>>>>>>>>>>>>>>//
  //               DFMP2               //
  //<<<<<<<<<<<<<<<<<<<<<<<<<<<<<<<<<<<//

   => Loading Basis Set <=

    Name: (CC-PVDZ AUX)
    Role: RIFIT
    Keyword: DF_BASIS_MP2
    atoms 1-8, 14, 17-19     entry C          line   159 file /home/maxbuskirk/.conda/envs/psifour/share/psi4/basis/cc-pvdz-ri.gbs 
    atoms 9-13, 15-16, 20-27 entry H          line    19 file /home/maxbuskirk/.conda/envs/psifour/share/psi4/basis/cc-pvdz-ri.gbs 

	 --------------------------------------------------------
	                          DF-MP2                         
	      2nd-Order Density-Fitted Moller-Plesset Theory     
	              RMP2 Wavefunction,   1 Threads             
	                                                         
	        Rob Parrish, Justin Turney, Andy Simmonett,      
	           Ed Hohenstein, and C. David Sherrill          
	 --------------------------------------------------------

   => Auxiliary Basis Set <=

  Basis Set: (CC-PVDZ AUX)
    Blend: CC-PVDZ-RI
    Number of shells: 306
    Number of basis functions: 882
    Number of Cartesian functions: 1017
    Spherical Harmonics?: true
    Max angular momentum: 3

	 --------------------------------------------------------
	                 NBF =   243, NAUX =   882
	 --------------------------------------------------------
	   CLASS    FOCC     OCC    AOCC    AVIR     VIR    FVIR
	   PAIRS       0      43      43     200     200       0
	 --------------------------------------------------------

  DFHelper Memory: AOs need 0.497 GiB; user supplied 22.352 GiB. Using in-core AOs.


         ------------------------------------------------------------
                                     CPHF                           
                                  Rob Parrish                       
         ------------------------------------------------------------

  ==> Geometry <==

    Molecular point group: c1
    Full point group: C1

    Geometry (in Angstrom), charge = 1, multiplicity = 1:

       Center              X                  Y                   Z               Mass       
    ------------   -----------------  -----------------  -----------------  -----------------
         C            1.424337985008     1.462607573556     0.500399174163    12.000000000000
         C            0.506089454865     0.794489566191    -0.401322968214    12.000000000000
         C           -0.687403463995     0.111448747889     0.119696259345    12.000000000000
         C           -0.692539536729    -1.215200962069     0.598007889010    12.000000000000
         C           -1.893659344892    -1.764927232354     1.073158712296    12.000000000000
         C           -3.074007554305    -1.006367991915     1.073209299840    12.000000000000
         C           -3.060776215665     0.313874090828     0.595184245293    12.000000000000
         C           -1.872572231864     0.883981018468     0.115295579430    12.000000000000
         H           -1.868272688843     1.913506372525    -0.256243295021     1.007825032230
         H           -3.977089061254     0.910210759006     0.592470114713     1.007825032230
         H           -4.004165812962    -1.443175189392     1.445389777102     1.007825032230
         H           -1.899547325983    -2.793177518047     1.444337837819     1.007825032230
         H            0.218930245212    -1.817476153507     0.603426469556     1.007825032230
         C            0.893291515607     0.642603783978    -1.791245927912    12.000000000000
         H            0.084078963001     0.280727567863    -2.437693622456     1.007825032230
         H            1.409398853943     1.522528627794    -2.201959628764     1.007825032230
         C            2.003876393317    -0.515126713384    -1.644277990393    12.000000000000
         C            3.107108355563    -0.062223905763    -0.697953749613    12.000000000000
         C            2.537589780170     0.308454167202     0.664273225173    12.000000000000
         H            2.087371394596    -0.560259329201     1.170406052398     1.007825032230
         H            3.285592112927     0.742706237007     1.346347192127     1.007825032230
         H            3.837479471587    -0.880521879601    -0.574915336231     1.007825032230
         H            3.650977143752     0.795344259451    -1.129529535934     1.007825032230
         H            1.518700516128    -1.440598399808    -1.295371973368     1.007825032230
         H            0.994421552675     1.685964908672     1.484359761246     1.007825032230
         H            1.933726728927     2.326191501092     0.047853469280     1.007825032230
         H            2.357031890073    -0.689639493193    -2.672915833372     1.007825032230

  Nuclear repulsion =  675.417150553192187
  Reference energy  = -462.924097109695879

  ==> Basis Set <==

  Basis Set: CC-PVDZ
    Blend: CC-PVDZ
    Number of shells: 117
    Number of basis functions: 243
    Number of Cartesian functions: 255
    Spherical Harmonics?: true
    Max angular momentum: 2

  ==> CGRSolver (by Rob Parrish) <==

   Number of roots    =         1
   Preconditioning    =    JACOBI
   Convergence cutoff =     1E-06
   Maximum iterations =       100

  ==> CPHFRHamiltonian (by Rob Parrish) <== 

  ==> MemDFJK: Density-Fitted J/K Matrices <==

    J tasked:                   Yes
    K tasked:                   Yes
    wK tasked:                   No
    OpenMP threads:               1
    Memory [MiB]:             22888
    Algorithm:                 Core
    Schwarz Cutoff:           1E-12
    Mask sparsity (%):       8.4946
    Fitting Condition:        1E-10

   => Auxiliary Basis Set <=

  Basis Set: (CC-PVDZ AUX)
    Blend: CC-PVDZ-JKFIT
    Number of shells: 423
    Number of basis functions: 1185
    Number of Cartesian functions: 1347
    Spherical Harmonics?: true
    Max angular momentum: 3

  ==> CPHF Iterations <==

  => Iterations <=

             Iter  Converged  Remaining    Residual
  CGR           1          0          1   1.159E-01
  CGR           2          0          1   3.698E-02
  CGR           3          0          1   1.740E-02
  CGR           4          0          1   4.245E-03
  CGR           5          0          1   1.665E-03
  CGR           6          0          1   7.353E-04
  CGR           7          0          1   2.842E-04
  CGR           8          0          1   8.198E-05
  CGR           9          0          1   3.843E-05
  CGR          10          0          1   1.532E-05
  CGR          11          0          1   7.664E-06
  CGR          12          0          1   2.761E-06
  CGR          13          1          0   8.163E-07

    CGRSolver converged.

  ==> DFCorrGrad: Density-Fitted Correlated Gradients <==

    OpenMP threads:              1
    Integrals threads:           1
    Memory [GiB]:           22.352
    Schwarz Cutoff:          0E+00
    Fitting Condition:       1E-10

   => Auxiliary Basis Set <=

  Basis Set: (CC-PVDZ AUX)
    Blend: CC-PVDZ-JKFIT
    Number of shells: 423
    Number of basis functions: 1185
    Number of Cartesian functions: 1347
    Spherical Harmonics?: true
    Max angular momentum: 3

	-----------------------------------------------------------
	 ==================> DF-MP2 Energies <==================== 
	-----------------------------------------------------------
	 Reference Energy          =    -462.9240971096958788 [Eh]
	 Singles Energy            =      -0.0000000000000000 [Eh]
	 Same-Spin Energy          =      -0.4191303591375415 [Eh]
	 Opposite-Spin Energy      =      -1.2118084056712819 [Eh]
	 Correlation Energy        =      -1.6309387648088234 [Eh]
	 Total Energy              =    -464.5550358745047106 [Eh]
	-----------------------------------------------------------
[...]
      5   C               -0.00  0.00 -0.00    0.00 -0.00  0.00   -0.00 -0.01  0.00   
      6   C                0.00  0.00  0.00    0.00  0.00 -0.00    0.01  0.00 -0.00   
      7   C                0.00  0.00  0.00   -0.00  0.00 -0.00   -0.02  0.02 -0.00   
      8   C               -0.00 -0.00 -0.00   -0.00 -0.00  0.00   -0.00 -0.08  0.03   
      9   H               -0.00  0.00 -0.00   -0.00  0.00 -0.00    0.00  0.87 -0.31   
     10   H                0.00  0.00  0.00    0.00 -0.00 -0.00    0.28 -0.18  0.00   
     11   H                0.00 -0.00 -0.00   -0.00 -0.00  0.00   -0.10 -0.05  0.04   
     12   H               -0.00 -0.00  0.00    0.00  0.01 -0.00    0.00  0.08 -0.03   
     13   H               -0.00  0.00 -0.00    0.06 -0.04  0.00    0.05 -0.03  0.00   
     14   C               -0.00 -0.00 -0.00    0.00  0.00  0.00   -0.00 -0.00 -0.00   
     15   H                0.05  0.03  0.04   -0.05 -0.02 -0.04    0.02  0.01  0.01   
     16   H               -0.01 -0.02  0.01    0.01  0.02 -0.01    0.01  0.01 -0.01   
     17   C                0.03  0.03 -0.05   -0.03 -0.03  0.05    0.00  0.00 -0.00   
     18   C                0.00  0.00 -0.00   -0.00 -0.03  0.01   -0.00  0.00 -0.00   
     19   C               -0.04 -0.05 -0.01   -0.04 -0.05 -0.00    0.00  0.00 -0.00   
     20   H                0.19  0.38 -0.22    0.21  0.41 -0.24   -0.00 -0.00  0.00   
     21   H                0.32  0.18  0.29    0.32  0.18  0.29   -0.00 -0.00 -0.00   
     22   H                0.01 -0.01  0.00   -0.11  0.12 -0.02    0.00 -0.00  0.00   
     23   H               -0.01 -0.01  0.00    0.12  0.19 -0.10   -0.00 -0.00  0.00   
     24   H               -0.23 -0.44  0.17    0.21  0.39 -0.15   -0.00 -0.00  0.00   
     25   H               -0.03  0.01  0.06   -0.03  0.01  0.07    0.01 -0.00 -0.02   
     26   H                0.01  0.02 -0.01    0.01  0.02 -0.01    0.01  0.01 -0.01   
     27   H               -0.16  0.09  0.48    0.13 -0.07 -0.40   -0.00  0.00  0.00   

  Vibration                       76                  77                  78          
  Freq [cm^-1]                3230.9432           3233.4570           3241.2204       
  Irrep                           A                   A                   A           
  Reduced mass [u]              1.1114              1.1127              1.0870        
  Force const [mDyne/A]         6.8357              6.8541              6.7284        
  Turning point v=0 [a0]        0.1831              0.1829              0.1849        
  RMS dev v=0 [a0 u^1/2]        0.1365              0.1364              0.1363        
  Char temp [K]               4648.6079           4652.2247           4663.3945       
  ----------------------------------------------------------------------------------
      1   C                0.03  0.01 -0.05    0.04  0.02 -0.06    0.00  0.00 -0.00   
      2   C               -0.00 -0.00  0.00    0.00  0.00 -0.00   -0.00  0.00 -0.00   
      3   C                0.00 -0.00 -0.00   -0.00  0.00  0.00    0.00 -0.00  0.00   
      4   C               -0.00  0.00  0.00    0.00 -0.00  0.00   -0.04  0.03 -0.00   
      5   C               -0.00 -0.00 -0.00   -0.00  0.00 -0.00    0.00 -0.05  0.02   
      6   C               -0.00 -0.00  0.00   -0.00 -0.00  0.00    0.03  0.01 -0.01   
      7   C                0.00 -0.00  0.00   -0.00  0.00 -0.00   -0.01  0.01  0.00   
      8   C                0.00  0.00 -0.00   -0.00 -0.00  0.00    0.00  0.02 -0.01   
      9   H               -0.00 -0.01  0.00    0.00  0.04 -0.01   -0.00 -0.19  0.07   
     10   H               -0.00  0.00  0.00    0.01 -0.01  0.00    0.13 -0.09  0.00   
     11   H                0.00  0.00 -0.00    0.00  0.00 -0.00   -0.34 -0.16  0.14   
     12   H               -0.00  0.00 -0.00   -0.00 -0.02  0.01    0.00  0.63 -0.23   
     13   H                0.00 -0.00  0.00   -0.03  0.02 -0.00    0.47 -0.31  0.00   
     14   C               -0.06 -0.05 -0.02    0.05  0.04  0.01    0.00  0.00  0.00   
     15   H                0.46  0.21  0.38   -0.37 -0.17 -0.30   -0.01 -0.01 -0.01   
     16   H                0.21  0.35 -0.17   -0.18 -0.30  0.14   -0.01 -0.01  0.01   
     17   C               -0.00 -0.00  0.00    0.00  0.00 -0.00    0.00  0.00 -0.00   
     18   C                0.00  0.00  0.00    0.00  0.00 -0.00    0.00  0.00 -0.00   
     19   C                0.00  0.00 -0.00    0.00  0.00 -0.00    0.00  0.00 -0.00   
     20   H               -0.02 -0.03  0.02   -0.02 -0.04  0.02   -0.01 -0.03  0.02   
     21   H               -0.01 -0.01 -0.01   -0.01 -0.01 -0.01   -0.01 -0.01 -0.01   
     22   H               -0.00  0.00 -0.00    0.00 -0.00  0.00    0.00 -0.00  0.00   
     23   H                0.00  0.00  0.00   -0.01 -0.01  0.01   -0.00 -0.01  0.00   
     24   H                0.02  0.04 -0.02   -0.02 -0.03  0.01   -0.01 -0.03  0.01   
     25   H               -0.20  0.11  0.46   -0.24  0.13  0.56   -0.01  0.00  0.02   
     26   H               -0.16 -0.28  0.14   -0.21 -0.36  0.19   -0.01 -0.01  0.01   
     27   H                0.01 -0.00 -0.02   -0.00  0.00  0.01   -0.00  0.00  0.01   

  Vibration                       79                  80                  81          
  Freq [cm^-1]                3250.1060           3257.6247           3266.2231       
  Irrep                           A                   A                   A           
  Reduced mass [u]              1.0918              1.0961              1.1008        
  Force const [mDyne/A]         6.7950              6.8536              6.9193        
  Turning point v=0 [a0]        0.1842              0.1836              0.1830        
  RMS dev v=0 [a0 u^1/2]        0.1361              0.1359              0.1358        
  Char temp [K]               4676.1789           4686.9966           4699.3679       
  ----------------------------------------------------------------------------------
      1   C               -0.00 -0.00  0.00   -0.00 -0.00  0.00   -0.00 -0.00  0.00   
      2   C                0.00 -0.00 -0.00    0.00 -0.00  0.00    0.00 -0.00 -0.00   
      3   C                0.00  0.00 -0.00   -0.00  0.00 -0.00    0.00  0.00 -0.00   
      4   C                0.04 -0.02  0.00    0.04 -0.03 -0.00    0.02 -0.01 -0.00   
      5   C               -0.00  0.01 -0.00   -0.00 -0.04  0.02    0.00 -0.04  0.02   
      6   C                0.04  0.02 -0.01    0.02  0.01 -0.01   -0.05 -0.03  0.02   
      7   C               -0.05  0.03  0.00    0.04 -0.03  0.00   -0.03  0.02 -0.00   
      8   C                0.00  0.02 -0.01   -0.00 -0.01  0.01    0.00  0.01 -0.00   
      9   H               -0.00 -0.23  0.08    0.00  0.15 -0.05   -0.00 -0.08  0.03   
     10   H                0.52 -0.34  0.00   -0.45  0.29 -0.00    0.35 -0.23  0.00   
     11   H               -0.44 -0.21  0.18   -0.20 -0.10  0.08    0.60  0.28 -0.24   
     12   H                0.00 -0.10  0.03    0.00  0.49 -0.18    0.00  0.47 -0.17   
     13   H               -0.43  0.28 -0.00   -0.49  0.32 -0.00   -0.21  0.13  0.00   
     14   C               -0.00 -0.00 -0.00   -0.00 -0.00 -0.00   -0.00 -0.00  0.00   
     15   H                0.01  0.00  0.01    0.00  0.00  0.00    0.00  0.00  0.00   
     16   H                0.00  0.01 -0.00    0.00  0.00 -0.00    0.00  0.00 -0.00   
     17   C               -0.00 -0.00  0.00   -0.00 -0.00  0.00   -0.00 -0.00  0.00   
     18   C               -0.00 -0.00  0.00   -0.00 -0.00  0.00   -0.00 -0.00  0.00   
     19   C               -0.00 -0.00  0.00   -0.00 -0.00  0.00   -0.00 -0.00  0.00   
     20   H                0.01  0.02 -0.01    0.01  0.02 -0.01    0.00  0.01 -0.00   
     21   H                0.01  0.00  0.01    0.01  0.00  0.01    0.00  0.00  0.00   
     22   H               -0.00  0.00 -0.00   -0.00  0.00 -0.00    0.00 -0.00  0.00   
     23   H                0.00  0.00 -0.00    0.00  0.00 -0.00    0.00  0.00 -0.00   
     24   H                0.01  0.02 -0.01    0.01  0.02 -0.01    0.00  0.01 -0.00   
     25   H                0.00 -0.00 -0.01    0.00 -0.00 -0.00    0.00 -0.00 -0.00   
     26   H                0.00  0.01 -0.00    0.00  0.00 -0.00    0.00  0.00 -0.00   
     27   H                0.00 -0.00 -0.01    0.00 -0.00 -0.01    0.00 -0.00 -0.00   

  ==> Thermochemistry Components <==

  Entropy, S
    Electronic S            0.000 [cal/(mol K)]        0.000 [J/(mol K)]       0.00000000 [mEh/K] (multiplicity = 1)
    Translational S        41.102 [cal/(mol K)]      171.973 [J/(mol K)]       0.06550099 [mEh/K] (mol. weight = 159.1174 [u], P = 101325.00 [Pa])
    Rotational S           30.537 [cal/(mol K)]      127.767 [J/(mol K)]       0.04866383 [mEh/K] (symmetry no. = 1)
    Vibrational S          24.675 [cal/(mol K)]      103.238 [J/(mol K)]       0.03932142 [mEh/K]
  Total S                  96.314 [cal/(mol K)]      402.978 [J/(mol K)]       0.15348624 [mEh/K]
  Correction S              0.000 [cal/(mol K)]        0.000 [J/(mol K)]       0.00000000 [mEh/K]

  Constant volume heat capacity, Cv
    Electronic Cv           0.000 [cal/(mol K)]        0.000 [J/(mol K)]       0.00000000 [mEh/K]
    Translational Cv        2.981 [cal/(mol K)]       12.472 [J/(mol K)]       0.00475022 [mEh/K]
    Rotational Cv           2.981 [cal/(mol K)]       12.472 [J/(mol K)]       0.00475022 [mEh/K]
    Vibrational Cv         34.655 [cal/(mol K)]      144.995 [J/(mol K)]       0.05522564 [mEh/K]
  Total Cv                 40.616 [cal/(mol K)]      169.938 [J/(mol K)]       0.06472607 [mEh/K]
  Correction Cv             0.000 [cal/(mol K)]        0.000 [J/(mol K)]       0.00000000 [mEh/K]

  Constant pressure heat capacity, Cp
    Electronic Cp           0.000 [cal/(mol K)]        0.000 [J/(mol K)]       0.00000000 [mEh/K]
    Translational Cp        4.968 [cal/(mol K)]       20.786 [J/(mol K)]       0.00791703 [mEh/K]
    Rotational Cp           2.981 [cal/(mol K)]       12.472 [J/(mol K)]       0.00475022 [mEh/K]
    Vibrational Cp         34.655 [cal/(mol K)]      144.995 [J/(mol K)]       0.05522564 [mEh/K]
  Total Cp                 42.603 [cal/(mol K)]      178.253 [J/(mol K)]       0.06789289 [mEh/K]
  Correction Cp             0.000 [cal/(mol K)]        0.000 [J/(mol K)]       0.00000000 [mEh/K]

  ==> Thermochemistry Energy Analysis <==

  Raw electronic energy, E0
  Total E0, Electronic energy at well bottom at 0 [K]                 -464.55503635 [Eh]

  Zero-point energy, ZPE_vib = Sum_i nu_i / 2
    Electronic ZPE          0.000 [kcal/mol]        0.000 [kJ/mol]       0.00000000 [Eh]
    Translational ZPE       0.000 [kcal/mol]        0.000 [kJ/mol]       0.00000000 [Eh]
    Rotational ZPE          0.000 [kcal/mol]        0.000 [kJ/mol]       0.00000000 [Eh]
    Vibrational ZPE       150.373 [kcal/mol]      629.161 [kJ/mol]       0.23963479 [Eh]       52593.758 [cm^-1]
  Correction ZPE          150.373 [kcal/mol]      629.161 [kJ/mol]       0.23963479 [Eh]       52593.758 [cm^-1]
  Total ZPE, Electronic energy at 0 [K]                               -464.31540155 [Eh]

  Thermal Energy, E (includes ZPE)
    Electronic E            0.000 [kcal/mol]        0.000 [kJ/mol]       0.00000000 [Eh]
    Translational E         0.889 [kcal/mol]        3.718 [kJ/mol]       0.00141628 [Eh]
    Rotational E            0.889 [kcal/mol]        3.718 [kJ/mol]       0.00141628 [Eh]
    Vibrational E         154.732 [kcal/mol]      647.401 [kJ/mol]       0.24658191 [Eh]
  Correction E            156.510 [kcal/mol]      654.838 [kJ/mol]       0.24941446 [Eh]
  Total E, Electronic energy at  298.15 [K]                           -464.30562189 [Eh]

  Enthalpy, H_trans = E_trans + k_B * T
    Electronic H            0.000 [kcal/mol]        0.000 [kJ/mol]       0.00000000 [Eh]
    Translational H         1.481 [kcal/mol]        6.197 [kJ/mol]       0.00236046 [Eh]
    Rotational H            0.889 [kcal/mol]        3.718 [kJ/mol]       0.00141628 [Eh]
    Vibrational H         154.732 [kcal/mol]      647.401 [kJ/mol]       0.24658191 [Eh]
  Correction H            157.102 [kcal/mol]      657.317 [kJ/mol]       0.25035864 [Eh]
  Total H, Enthalpy at  298.15 [K]                                    -464.30467770 [Eh]

  Gibbs free energy, G = H - T * S
    Electronic G            0.000 [kcal/mol]        0.000 [kJ/mol]       0.00000000 [Eh]
    Translational G       -10.773 [kcal/mol]      -45.076 [kJ/mol]      -0.01716866 [Eh]
    Rotational G           -8.216 [kcal/mol]      -34.375 [kJ/mol]      -0.01309284 [Eh]
    Vibrational G         147.376 [kcal/mol]      616.620 [kJ/mol]       0.23485822 [Eh]
  Correction G            128.386 [kcal/mol]      537.169 [kJ/mol]       0.20459672 [Eh]
  Total G, Free enthalpy at  298.15 [K]                               -464.35043963 [Eh]


Properties will be evaluated at   0.000000,   0.000000,   0.000000 [a0]
OEProp: No title given, name of density matrix used for the following properties is 'DF-MP2 relaxed density'
  Mulliken Charges: (a.u.)
   Center  Symbol    Alpha    Beta     Spin     Total
       1     C     2.96982  2.96982  0.00000  0.06036
       2     C     3.04756  3.04756  0.00000 -0.09511
       3     C     3.03186  3.03186  0.00000 -0.06372
       4     C     3.01427  3.01427  0.00000 -0.02854
       5     C     2.99264  2.99264  0.00000  0.01473
       6     C     2.99665  2.99665  0.00000  0.00670
       7     C     2.99589  2.99589  0.00000  0.00821
       8     C     2.99232  2.99232  0.00000  0.01536
       9     H     0.47785  0.47785  0.00000  0.04430
      10     H     0.46704  0.46704  0.00000  0.06593
      11     H     0.46793  0.46793  0.00000  0.06414
      12     H     0.46908  0.46908  0.00000  0.06184
      13     H     0.48035  0.48035  0.00000  0.03930
      14     C     2.97003  2.97003  0.00000  0.05993
      15     H     0.44524  0.44524  0.00000  0.10952
      16     H     0.44665  0.44665  0.00000  0.10670
      17     C     3.05208  3.05208  0.00000 -0.10415
      18     C     3.03258  3.03258  0.00000 -0.06515
      19     C     3.05212  3.05212  0.00000 -0.10424
      20     H     0.45442  0.45442  0.00000  0.09117
      21     H     0.44421  0.44421  0.00000  0.11158
      22     H     0.44918  0.44918  0.00000  0.10164
      23     H     0.45971  0.45971  0.00000  0.08058
      24     H     0.45441  0.45441  0.00000  0.09117
      25     H     0.44520  0.44520  0.00000  0.10961
      26     H     0.44669  0.44669  0.00000  0.10662
      27     H     0.44424  0.44424  0.00000  0.11152

   Total alpha = 43.00000, Total beta = 43.00000, Total charge =  1.00000

    Molecular point group: c1
    Full point group: C1

    Geometry (in Angstrom), charge = 1, multiplicity = 1:

       Center              X                  Y                   Z               Mass       
    ------------   -----------------  -----------------  -----------------  -----------------
         C            1.425056003475     1.462642754007     0.500390918691    12.000000000000
         C            0.506015663420     0.794494161141    -0.401329652114    12.000000000000
         C           -0.687467939282     0.111436701139     0.119689098389    12.000000000000
         C           -0.692581539549    -1.215206586661     0.598018780098    12.000000000000
         C           -1.893694307828    -1.764950276072     1.073167245469    12.000000000000
         C           -3.074057610775    -1.006414521991     1.073197801818    12.000000000000
         C           -3.060848619460     0.313821303586     0.595154849046    12.000000000000
         C           -1.872652042189     0.883945328722     0.115268157147    12.000000000000
         H           -1.868369935673     1.913465700398    -0.256284723730     1.007825032230
         H           -3.977173308145     0.910139701577     0.592425066336     1.007825032230
         H           -4.004210231556    -1.443235151447     1.445376604402     1.007825032230
         H           -1.899564874832    -2.793195615898     1.444360346993     1.007825032230
         H            0.218900181462    -1.817463567391     0.603453054031     1.007825032230
         C            0.893232151687     0.642597126731    -1.791247362760    12.000000000000
         H            0.084032104657     0.280695992335    -2.437696761318     1.007825032230
         H            1.409325351466     1.522526637924    -2.201968830067     1.007825032230
         C            2.003838859184    -0.515109267042    -1.644254522177    12.000000000000
         C            3.107054043743    -0.062171600837    -0.697927406458    12.000000000000
         C            2.537516914692     0.308513718718     0.664289839188    12.000000000000
         H            2.087311661567    -0.560201832608     1.170430820572     1.007825032230
         H            3.285505009436     0.742789974697     1.346364020757     1.007825032230
         H            3.837440432129    -0.880453363158    -0.574871839334     1.007825032230
         H            3.650909309403     0.795401499632    -1.129510426513     1.007825032230
         H            1.518678534004    -1.440585848322    -1.295339863661     1.007825032230
         H            0.994314548954     1.686004938350     1.484344924865     1.007825032230
         H            1.933618773431     2.326230628538     0.047837608444     1.007825032230
         H            2.357006269054    -0.689629049008    -2.672887086946     1.007825032230



  Variable Map:
  ----------------------------------------------------------------------------
  "CURRENT CORRELATION ENERGY"           =>      -1.630920010595
  "CURRENT DIPOLE X"                     =>       2.990147837219
  "CURRENT DIPOLE Y"                     =>       1.459896427041
  "CURRENT DIPOLE Z"                     =>      -1.214176102393
  "CURRENT ENERGY"                       =>    -464.555036346329
  "CURRENT REFERENCE ENERGY"             =>    -462.924116335734
  "CUSTOM SCS-MP2 CORRELATION ENERGY"    =>      -1.593864858113
  "CUSTOM SCS-MP2 TOTAL ENERGY"          =>    -464.517981193848
  "ENTHALPY"                             =>    -464.304677701579
  "ENTHALPY CORRECTION"                  =>       0.250358644750
  "GIBBS FREE ENERGY"                    =>    -464.350439625139
  "GIBBS FREE ENERGY CORRECTION"         =>       0.204596721191
  "HF TOTAL ENERGY"                      =>    -462.924116335734
  "MP2 CORRELATION ENERGY"               =>      -1.630920010595
  "MP2 DOUBLES ENERGY"                   =>      -1.630920010595
  "MP2 OPPOSITE-SPIN CORRELATION ENERGY" =>      -1.211797909133
  "MP2 SAME-SPIN CORRELATION ENERGY"     =>      -0.419122101462
  "MP2 SINGLES ENERGY"                   =>      -0.000000000000
  "MP2 TOTAL ENERGY"                     =>    -464.555036346329
  "NUCLEAR REPULSION ENERGY"             =>     675.412717919358
  "ONE-ELECTRON ENERGY"                  =>   -1950.439671650004
  "PCM POLARIZATION ENERGY"              =>       0.000000000000
  "PE ENERGY"                            =>       0.000000000000
  "SCF DIPOLE X"                         =>       2.990147837219
  "SCF DIPOLE Y"                         =>       1.459896427041
  "SCF DIPOLE Z"                         =>      -1.214176102393
  "SCF ITERATION ENERGY"                 =>    -462.924116335734
  "SCF ITERATIONS"                       =>      19.000000000000
  "SCF TOTAL ENERGY"                     =>    -462.924116335734
  "SCS-MP2 CORRELATION ENERGY"           =>      -1.593864858113
  "SCS-MP2 TOTAL ENERGY"                 =>    -464.517981193848
  "THERMAL ENERGY"                       =>    -464.305621886127
  "THERMAL ENERGY CORRECTION"            =>       0.249414460202
  "TWO-ELECTRON ENERGY"                  =>     812.102837394912
  "ZERO K ENTHALPY"                      =>    -464.315401551762
  "ZPVE"                                 =>       0.239634794568



    Psi4 stopped on: Tuesday, 21 September 2021 04:05PM
    Psi4 wall time for execution: 2:39:10.59

*** Psi4 exiting successfully. Buy a developer a beer!
