
    -----------------------------------------------------------------------
          Psi4: An Open-Source Ab Initio Electronic Structure Package
                               Psi4 1.4 release

                         Git: Rev {HEAD} 9485035 


    D. G. A. Smith, L. A. Burns, A. C. Simmonett, R. M. Parrish,
    M. C. Schieber, R. Galvelis, P. Kraus, H. Kruse, R. Di Remigio,
    A. Alenaizan, A. M. James, S. Lehtola, J. P. Misiewicz, M. Scheurer,
    R. A. Shaw, J. B. Schriber, Y. Xie, Z. L. Glick, D. A. Sirianni,
    J. S. O'Brien, J. M. Waldrop, A. Kumar, E. G. Hohenstein,
    B. P. Pritchard, B. R. Brooks, H. F. Schaefer III, A. Yu. Sokolov,
    K. Patkowski, A. E. DePrince III, U. Bozkaya, R. A. King,
    F. A. Evangelista, J. M. Turney, T. D. Crawford, C. D. Sherrill,
    J. Chem. Phys. 152(18) 184108 (2020). https://doi.org/10.1063/5.0006002

                            Additional Code Authors
    E. T. Seidl, C. L. Janssen, E. F. Valeev, M. L. Leininger,
    J. F. Gonthier, R. M. Richard, H. R. McAlexander, M. Saitow, X. Wang,
    P. Verma, and M. H. Lechner

             Previous Authors, Complete List of Code Contributors,
                       and Citations for Specific Modules
    https://github.com/psi4/psi4/blob/master/codemeta.json
    https://github.com/psi4/psi4/graphs/contributors
    http://psicode.org/psi4manual/master/introduction.html#citing-psifour

    -----------------------------------------------------------------------


    Psi4 started on: Wednesday, 08 September 2021 06:02PM

    Process ID: 1183329
    Host:       skystd12.palmetto.clemson.edu
    PSIDATADIR: /home/maxbuskirk/.conda/envs/psifour/share/psi4
    Memory:     500.0 MiB
    Threads:    1
    
  ==> Input File <==

--------------------------------------------------------------------------
memory 32 GB

molecule mol {
1 1
C    0.00000000  0.00000000  0.00000000
C   -0.82810000 -0.88190500 -0.95353500
C   -2.20167600 -1.29512600 -0.53908700
C   -2.37089200 -2.20347200  0.52701000
C   -3.65315900 -2.57423900  0.95833500
C   -4.78977300 -2.04120400  0.32637800
C   -4.63375300 -1.13584100 -0.73531600
C   -3.34793600 -0.76451300 -1.16154200
H   -3.22653200 -0.05260700 -1.98434600
H   -5.51451900 -0.71618200 -1.23119600
H   -5.79067600 -2.33256800  0.65835600
H   -3.76728100 -3.28440000  1.78319500
H   -1.48480000 -2.62888300  1.01093500
C   -0.47297000 -0.77068400 -2.42094700
H   -1.23384000 -1.07007300 -3.14730000
H    0.16834600  0.06137100 -2.73075700
C    0.15545600 -1.87025100 -1.58704500
C    1.54285300 -1.60489800 -1.00289800
C    1.26345500 -0.83009500  0.30138900
H    1.02838800 -1.55485600  1.10109100
H    2.11744400 -0.22067300  0.64257800
H    2.09368900 -2.54108900 -0.81943600
H    2.15158300 -0.99724100 -1.69631500
H   -0.16866300 -2.89696600 -1.78153100
H   -0.57146900  0.24062800  0.91033300
H    0.26424700  0.95586600 -0.48747600
H    0.70794595 -1.77289376 -2.26411283
}

set scf_type df
set opt_type ts
set basis cc-pVDZ
set reference rhf
set geom_maxiter 400


mol.update_geometry()
mol.symmetrize(1e-3)

e, wfn = optimize('mp2', return_wfn=True)
oeprop(wfn, "MULLIKEN_CHARGES")
mol.print_out()
print_variables()
--------------------------------------------------------------------------

  Memory set to  29.802 GiB by Python driver.

Scratch directory: /tmp/
gradient() will perform analytic gradient computation.

*** tstart() called on skystd12.palmetto.clemson.edu
*** at Wed Sep  8 18:02:49 2021

   => Loading Basis Set <=

    Name: CC-PVDZ
    Role: ORBITAL
    Keyword: BASIS
    atoms 1-8, 14, 17-19     entry C          line   138 file /home/maxbuskirk/.conda/envs/psifour/share/psi4/basis/cc-pvdz.gbs 
    atoms 9-13, 15-16, 20-27 entry H          line    22 file /home/maxbuskirk/.conda/envs/psifour/share/psi4/basis/cc-pvdz.gbs 


         ---------------------------------------------------------
                                   SCF
               by Justin Turney, Rob Parrish, Andy Simmonett
                          and Daniel G. A. Smith
                              RHF Reference
                        1 Threads,  30517 MiB Core
         ---------------------------------------------------------

  ==> Geometry <==

    Molecular point group: c1
    Full point group: C1

    Geometry (in Angstrom), charge = 1, multiplicity = 1:

       Center              X                  Y                   Z               Mass       
    ------------   -----------------  -----------------  -----------------  -----------------
         C            1.542053916194     1.323705191914     0.537726376213    12.000000000000
         C            0.713953916194     0.441800191914    -0.415808623787    12.000000000000
         C           -0.659622083806     0.028579191914    -0.001360623787    12.000000000000
         C           -0.828838083806    -0.879766808086     1.064736376213    12.000000000000
         C           -2.111105083806    -1.250533808086     1.496061376213    12.000000000000
         C           -3.247719083806    -0.717498808086     0.864104376213    12.000000000000
         C           -3.091699083806     0.187864191914    -0.197589623787    12.000000000000
         C           -1.805882083806     0.559192191914    -0.623815623787    12.000000000000
         H           -1.684478083806     1.271098191914    -1.446619623787     1.007825032230
         H           -3.972465083806     0.607523191914    -0.693469623787     1.007825032230
         H           -4.248622083806    -1.008862808086     1.196082376213     1.007825032230
         H           -2.225227083806    -1.960694808086     2.320921376213     1.007825032230
         H            0.057253916194    -1.305177808086     1.548661376213     1.007825032230
         C            1.069083916194     0.553021191914    -1.883220623787    12.000000000000
         H            0.308213916194     0.253632191914    -2.609573623787     1.007825032230
         H            1.710399916194     1.385076191914    -2.193030623787     1.007825032230
         C            1.697509916194    -0.546545808086    -1.049318623787    12.000000000000
         C            3.084906916194    -0.281192808086    -0.465171623787    12.000000000000
         C            2.805508916194     0.493610191914     0.839115376213    12.000000000000
         H            2.570441916194    -0.231150808086     1.638817376213     1.007825032230
         H            3.659497916194     1.103032191914     1.180304376213     1.007825032230
         H            3.635742916194    -1.217383808086    -0.281709623787     1.007825032230
         H            3.693636916194     0.326464191914    -1.158588623787     1.007825032230
         H            1.373390916194    -1.573260808086    -1.243804623787     1.007825032230
         H            0.970584916194     1.564333191914     1.448059376213     1.007825032230
         H            1.806300916194     2.279571191914     0.050250376213     1.007825032230
         H            2.249999866194    -0.449188568086    -1.726386453787     1.007825032230

  Running in c1 symmetry.

  Rotational constants: A =      0.07349  B =      0.01999  C =      0.01811 [cm^-1]
  Rotational constants: A =   2203.25446  B =    599.18783  C =    542.77442 [MHz]
  Nuclear repulsion =  683.952443964803820

  Charge       = 1
  Multiplicity = 1
  Electrons    = 86
  Nalpha       = 43
  Nbeta        = 43

  ==> Algorithm <==

  SCF Algorithm Type is DF.
  DIIS enabled.
  MOM disabled.
  Fractional occupation disabled.
  Guess Type is SAD.
  Energy threshold   = 1.00e-10
  Density threshold  = 1.00e-10
  Integral threshold = 1.00e-12

  ==> Primary Basis <==

  Basis Set: CC-PVDZ
    Blend: CC-PVDZ
    Number of shells: 117
    Number of basis functions: 243
    Number of Cartesian functions: 255
    Spherical Harmonics?: true
    Max angular momentum: 2

   => Loading Basis Set <=

    Name: (CC-PVDZ AUX)
    Role: JKFIT
    Keyword: DF_BASIS_SCF
    atoms 1-8, 14, 17-19     entry C          line   121 file /home/maxbuskirk/.conda/envs/psifour/share/psi4/basis/cc-pvdz-jkfit.gbs 
    atoms 9-13, 15-16, 20-27 entry H          line    51 file /home/maxbuskirk/.conda/envs/psifour/share/psi4/basis/cc-pvdz-jkfit.gbs 

  ==> Integral Setup <==

  DFHelper Memory: AOs need 0.498 GiB; user supplied 22.352 GiB. Using in-core AOs.

  ==> MemDFJK: Density-Fitted J/K Matrices <==

    J tasked:                   Yes
    K tasked:                   Yes
    wK tasked:                   No
    OpenMP threads:               1
    Memory [MiB]:             22888
    Algorithm:                 Core
    Schwarz Cutoff:           1E-12
    Mask sparsity (%):       8.3693
    Fitting Condition:        1E-10

   => Auxiliary Basis Set <=

  Basis Set: (CC-PVDZ AUX)
    Blend: CC-PVDZ-JKFIT
    Number of shells: 423
    Number of basis functions: 1185
    Number of Cartesian functions: 1347
    Spherical Harmonics?: true
    Max angular momentum: 3

  Minimum eigenvalue in the overlap matrix is 3.2897590497E-04.
  Reciprocal condition number of the overlap matrix is 4.3719495184E-05.
    Using symmetric orthogonalization.

  ==> Pre-Iterations <==

  SCF Guess: Superposition of Atomic Densities via on-the-fly atomic UHF (no occupation information).

   -------------------------
    Irrep   Nso     Nmo    
   -------------------------
     A        243     243 
   -------------------------
    Total     243     243
   -------------------------

  ==> Iterations <==

                           Total Energy        Delta E     RMS |[F,P]|

   @DF-RHF iter SAD:  -463.42703247621927   -4.63427e+02   0.00000e+00 
   @DF-RHF iter   1:  -462.55599306055001    8.71039e-01   2.19222e-03 DIIS
   @DF-RHF iter   2:  -462.74627294204907   -1.90280e-01   8.54941e-04 DIIS
   @DF-RHF iter   3:  -462.77074587423056   -2.44729e-02   2.63056e-04 DIIS
   @DF-RHF iter   4:  -462.77392286828524   -3.17699e-03   6.45165e-05 DIIS
   @DF-RHF iter   5:  -462.77407855220133   -1.55684e-04   2.21246e-05 DIIS
   @DF-RHF iter   6:  -462.77410411524909   -2.55630e-05   6.87779e-06 DIIS
   @DF-RHF iter   7:  -462.77410708104884   -2.96580e-06   2.60636e-06 DIIS
   @DF-RHF iter   8:  -462.77410780770811   -7.26659e-07   1.26775e-06 DIIS
   @DF-RHF iter   9:  -462.77410804382839   -2.36120e-07   5.30061e-07 DIIS
   @DF-RHF iter  10:  -462.77410808908462   -4.52562e-08   2.67933e-07 DIIS
   @DF-RHF iter  11:  -462.77410809867126   -9.58664e-09   8.53856e-08 DIIS
   @DF-RHF iter  12:  -462.77410809969666   -1.02540e-09   2.70771e-08 DIIS
   @DF-RHF iter  13:  -462.77410809976482   -6.81553e-11   1.06574e-08 DIIS
   @DF-RHF iter  14:  -462.77410809977596   -1.11413e-11   3.09397e-09 DIIS
   @DF-RHF iter  15:  -462.77410809977647   -5.11591e-13   1.04792e-09 DIIS
   @DF-RHF iter  16:  -462.77410809977789   -1.42109e-12   4.04451e-10 DIIS
   @DF-RHF iter  17:  -462.77410809977698    9.09495e-13   1.82958e-10 DIIS
   @DF-RHF iter  18:  -462.77410809977619    7.95808e-13   8.19144e-11 DIIS
  Energy and wave function converged.


  ==> Post-Iterations <==

    Orbital Energies [Eh]
    ---------------------

    Doubly Occupied:                                                      

       1A    -11.484872     2A    -11.469443     3A    -11.447954  
       4A    -11.442356     5A    -11.397996     6A    -11.396173  
       7A    -11.393278     8A    -11.378753     9A    -11.377593  
      10A    -11.367220    11A    -11.366344    12A    -11.365545  
      13A     -1.447142    14A     -1.284457    15A     -1.229713  
      16A     -1.219891    17A     -1.140686    18A     -1.138361  
      19A     -1.042307    20A     -1.015918    21A     -0.977289  
      22A     -0.951605    23A     -0.945164    24A     -0.880805  
      25A     -0.831231    26A     -0.827229    27A     -0.791958  
      28A     -0.773302    29A     -0.766656    30A     -0.755065  
      31A     -0.732452    32A     -0.711850    33A     -0.705222  
      34A     -0.690350    35A     -0.660387    36A     -0.657462  
      37A     -0.647496    38A     -0.625094    39A     -0.623069  
      40A     -0.614236    41A     -0.595637    42A     -0.462186  
      43A     -0.458902  

    Virtual:                                                              

      44A     -0.037963    45A      0.001637    46A      0.003775  
      47A      0.018968    48A      0.031894    49A      0.048451  
      50A      0.054571    51A      0.075986    52A      0.091526  
      53A      0.094119    54A      0.101074    55A      0.115897  
      56A      0.122777    57A      0.133698    58A      0.141800  
      59A      0.153881    60A      0.162448    61A      0.168765  
      62A      0.193178    63A      0.210108    64A      0.220633  
      65A      0.235800    66A      0.247527    67A      0.269577  
      68A      0.297254    69A      0.315718    70A      0.325516  
      71A      0.342537    72A      0.354188    73A      0.362153  
      74A      0.384208    75A      0.408002    76A      0.433591  
      77A      0.437752    78A      0.486791    79A      0.489558  
      80A      0.511604    81A      0.515200    82A      0.529357  
      83A      0.543494    84A      0.562043    85A      0.567944  
      86A      0.576618    87A      0.593734    88A      0.599426  
      89A      0.608591    90A      0.612470    91A      0.617851  
      92A      0.636938    93A      0.648186    94A      0.655574  
      95A      0.658310    96A      0.669192    97A      0.678597  
      98A      0.684520    99A      0.693553   100A      0.698605  
     101A      0.705717   102A      0.712258   103A      0.721311  
     104A      0.734532   105A      0.738081   106A      0.748278  
     107A      0.749071   108A      0.756290   109A      0.766151  
     110A      0.775483   111A      0.781159   112A      0.787739  
     113A      0.796658   114A      0.810831   115A      0.824591  
     116A      0.837442   117A      0.865937   118A      0.870382  
     119A      0.931343   120A      0.969466   121A      0.987096  
     122A      1.010267   123A      1.020020   124A      1.024851  
     125A      1.033122   126A      1.051270   127A      1.091789  
     128A      1.110801   129A      1.114846   130A      1.129524  
     131A      1.134661   132A      1.146615   133A      1.157527  
     134A      1.168464   135A      1.176451   136A      1.194104  
     137A      1.215219   138A      1.236781   139A      1.251274  
     140A      1.283594   141A      1.311224   142A      1.330105  
     143A      1.338031   144A      1.360221   145A      1.394583  
     146A      1.425604   147A      1.445551   148A      1.488646  
     149A      1.506704   150A      1.520477   151A      1.553682  
     152A      1.560846   153A      1.604019   154A      1.604665  
     155A      1.611190   156A      1.626982   157A      1.634175  
     158A      1.642915   159A      1.659126   160A      1.676660  
     161A      1.681267   162A      1.699371   163A      1.706700  
     164A      1.731308   165A      1.732263   166A      1.746216  
     167A      1.752039   168A      1.761967   169A      1.768165  
     170A      1.774265   171A      1.783650   172A      1.793921  
     173A      1.804148   174A      1.810906   175A      1.817746  
     176A      1.823187   177A      1.829628   178A      1.834190  
     179A      1.849773   180A      1.859361   181A      1.876366  
     182A      1.883746   183A      1.892614   184A      1.919813  
     185A      1.939496   186A      1.942300   187A      1.948086  
     188A      1.977576   189A      1.988885   190A      2.006504  
     191A      2.019097   192A      2.024344   193A      2.040111  
     194A      2.049273   195A      2.061777   196A      2.070727  
     197A      2.096001   198A      2.096256   199A      2.113375  
     200A      2.124282   201A      2.136107   202A      2.161774  
     203A      2.175428   204A      2.183105   205A      2.208177  
     206A      2.238265   207A      2.250934   208A      2.256477  
     209A      2.267456   210A      2.286403   211A      2.303522  
     212A      2.337960   213A      2.350742   214A      2.356905  
     215A      2.405470   216A      2.412026   217A      2.430775  
     218A      2.461681   219A      2.511592   220A      2.556436  
     221A      2.579404   222A      2.592703   223A      2.608135  
     224A      2.626881   225A      2.635993   226A      2.639261  
     227A      2.649628   228A      2.682261   229A      2.720022  
     230A      2.726925   231A      2.761109   232A      2.797668  
     233A      2.822863   234A      2.834941   235A      2.866128  
     236A      2.889774   237A      2.956333   238A      2.990560  
     239A      3.029839   240A      3.072583   241A      3.125424  
     242A      3.542612   243A      3.776322  

    Final Occupation by Irrep:
              A 
    DOCC [    43 ]

  @DF-RHF Final Energy:  -462.77410809977619

   => Energetics <=

    Nuclear Repulsion Energy =            683.9524439648038197
    One-Electron Energy =               -1967.2718111836886692
    Two-Electron Energy =                 820.5452591191087777
    Total Energy =                       -462.7741080997761856

Computation Completed


Properties will be evaluated at   0.000000,   0.000000,   0.000000 [a0]

Properties computed using the SCF density matrix

  Nuclear Dipole Moment: [e a0]
     X:     9.2853      Y:     0.9797      Z:    -1.8469

  Electronic Dipole Moment: [e a0]
     X:    -7.0558      Y:    -0.9821      Z:     0.4410

  Dipole Moment: [e a0]
     X:     2.2295      Y:    -0.0024      Z:    -1.4059     Total:     2.6358

  Dipole Moment: [D]
     X:     5.6669      Y:    -0.0061      Z:    -3.5735     Total:     6.6995


*** tstop() called on skystd12.palmetto.clemson.edu at Wed Sep  8 18:03:06 2021
Module time:
	user time   =      15.19 seconds =       0.25 minutes
	system time =       0.67 seconds =       0.01 minutes
	total time  =         17 seconds =       0.28 minutes
Total time:
	user time   =      15.19 seconds =       0.25 minutes
	system time =       0.67 seconds =       0.01 minutes
	total time  =         17 seconds =       0.28 minutes

*** tstart() called on skystd12.palmetto.clemson.edu
*** at Wed Sep  8 18:03:06 2021


  //>>>>>>>>>>>>>>>>>>>>>>>>>>>>>>>>>>>//
  //               DFMP2               //
  //<<<<<<<<<<<<<<<<<<<<<<<<<<<<<<<<<<<//

   => Loading Basis Set <=

    Name: (CC-PVDZ AUX)
    Role: RIFIT
    Keyword: DF_BASIS_MP2
    atoms 1-8, 14, 17-19     entry C          line   159 file /home/maxbuskirk/.conda/envs/psifour/share/psi4/basis/cc-pvdz-ri.gbs 
    atoms 9-13, 15-16, 20-27 entry H          line    19 file /home/maxbuskirk/.conda/envs/psifour/share/psi4/basis/cc-pvdz-ri.gbs 

	 --------------------------------------------------------
	                          DF-MP2                         
	      2nd-Order Density-Fitted Moller-Plesset Theory     
	              RMP2 Wavefunction,   1 Threads             
	                                                         
	        Rob Parrish, Justin Turney, Andy Simmonett,      
	           Ed Hohenstein, and C. David Sherrill          
	 --------------------------------------------------------

   => Auxiliary Basis Set <=

  Basis Set: (CC-PVDZ AUX)
    Blend: CC-PVDZ-RI
    Number of shells: 306
    Number of basis functions: 882
    Number of Cartesian functions: 1017
    Spherical Harmonics?: true
    Max angular momentum: 3

	 --------------------------------------------------------
	                 NBF =   243, NAUX =   882
	 --------------------------------------------------------
	   CLASS    FOCC     OCC    AOCC    AVIR     VIR    FVIR
	   PAIRS       0      43      43     200     200       0
	 --------------------------------------------------------

  DFHelper Memory: AOs need 0.498 GiB; user supplied 22.352 GiB. Using in-core AOs.


         ------------------------------------------------------------
                                     CPHF                           
                                  Rob Parrish                       
         ------------------------------------------------------------

  ==> Geometry <==

    Molecular point group: c1
    Full point group: C1

    Geometry (in Angstrom), charge = 1, multiplicity = 1:

       Center              X                  Y                   Z               Mass       
    ------------   -----------------  -----------------  -----------------  -----------------
         C            1.542053916194     1.323705191914     0.537726376213    12.000000000000
         C            0.713953916194     0.441800191914    -0.415808623787    12.000000000000
         C           -0.659622083806     0.028579191914    -0.001360623787    12.000000000000
         C           -0.828838083806    -0.879766808086     1.064736376213    12.000000000000
         C           -2.111105083806    -1.250533808086     1.496061376213    12.000000000000
         C           -3.247719083806    -0.717498808086     0.864104376213    12.000000000000
         C           -3.091699083806     0.187864191914    -0.197589623787    12.000000000000
         C           -1.805882083806     0.559192191914    -0.623815623787    12.000000000000
         H           -1.684478083806     1.271098191914    -1.446619623787     1.007825032230
         H           -3.972465083806     0.607523191914    -0.693469623787     1.007825032230
         H           -4.248622083806    -1.008862808086     1.196082376213     1.007825032230
         H           -2.225227083806    -1.960694808086     2.320921376213     1.007825032230
         H            0.057253916194    -1.305177808086     1.548661376213     1.007825032230
         C            1.069083916194     0.553021191914    -1.883220623787    12.000000000000
         H            0.308213916194     0.253632191914    -2.609573623787     1.007825032230
         H            1.710399916194     1.385076191914    -2.193030623787     1.007825032230
         C            1.697509916194    -0.546545808086    -1.049318623787    12.000000000000
         C            3.084906916194    -0.281192808086    -0.465171623787    12.000000000000
         C            2.805508916194     0.493610191914     0.839115376213    12.000000000000
         H            2.570441916194    -0.231150808086     1.638817376213     1.007825032230
         H            3.659497916194     1.103032191914     1.180304376213     1.007825032230
         H            3.635742916194    -1.217383808086    -0.281709623787     1.007825032230
         H            3.693636916194     0.326464191914    -1.158588623787     1.007825032230
         H            1.373390916194    -1.573260808086    -1.243804623787     1.007825032230
         H            0.970584916194     1.564333191914     1.448059376213     1.007825032230
         H            1.806300916194     2.279571191914     0.050250376213     1.007825032230
         H            2.249999866194    -0.449188568086    -1.726386453787     1.007825032230

  Nuclear repulsion =  683.952443964803820
  Reference energy  = -462.774108099776186

  ==> Basis Set <==

  Basis Set: CC-PVDZ
    Blend: CC-PVDZ
    Number of shells: 117
    Number of basis functions: 243
    Number of Cartesian functions: 255
    Spherical Harmonics?: true
    Max angular momentum: 2

  ==> CGRSolver (by Rob Parrish) <==

   Number of roots    =         1
   Preconditioning    =    JACOBI
   Convergence cutoff =     1E-06
   Maximum iterations =       100

  ==> CPHFRHamiltonian (by Rob Parrish) <== 

  ==> MemDFJK: Density-Fitted J/K Matrices <==

    J tasked:                   Yes
    K tasked:                   Yes
    wK tasked:                   No
    OpenMP threads:               1
    Memory [MiB]:             22888
    Algorithm:                 Core
    Schwarz Cutoff:           1E-12
    Mask sparsity (%):       8.3693
    Fitting Condition:        1E-10

   => Auxiliary Basis Set <=

  Basis Set: (CC-PVDZ AUX)
    Blend: CC-PVDZ-JKFIT
    Number of shells: 423
    Number of basis functions: 1185
    Number of Cartesian functions: 1347
    Spherical Harmonics?: true
    Max angular momentum: 3

  ==> CPHF Iterations <==

  => Iterations <=

             Iter  Converged  Remaining    Residual
  CGR           1          0          1   7.100E-02
  CGR           2          0          1   1.555E-02
  CGR           3          0          1   7.928E-03
  CGR           4          0          1   3.076E-03
  CGR           5          0          1   1.418E-03
  CGR           6          0          1   6.142E-04
  CGR           7          0          1   2.486E-04
  CGR           8          0          1   7.265E-05
  CGR           9          0          1   2.857E-05
  CGR          10          0          1   8.844E-06
  CGR          11          0          1   3.038E-06
  CGR          12          0          1   1.066E-06
  CGR          13          1          0   4.537E-07

    CGRSolver converged.

  ==> DFCorrGrad: Density-Fitted Correlated Gradients <==

    OpenMP threads:              1
    Integrals threads:           1
    Memory [GiB]:           22.352
    Schwarz Cutoff:          0E+00
    Fitting Condition:       1E-10

   => Auxiliary Basis Set <=

  Basis Set: (CC-PVDZ AUX)
    Blend: CC-PVDZ-JKFIT
    Number of shells: 423
    Number of basis functions: 1185
    Number of Cartesian functions: 1347
    Spherical Harmonics?: true
    Max angular momentum: 3

	-----------------------------------------------------------
	 ==================> DF-MP2 Energies <==================== 
	-----------------------------------------------------------
	 Reference Energy          =    -462.7741080997761856 [Eh]
	 Singles Energy            =      -0.0000000000000000 [Eh]
	 Same-Spin Energy          =      -0.4305544432213250 [Eh]
	 Opposite-Spin Energy      =      -1.2246368436417017 [Eh]
	 Correlation Energy        =      -1.6551912868630267 [Eh]
	 Total Energy              =    -464.4292993866392294 [Eh]
	-----------------------------------------------------------
	 ================> DF-SCS-MP2 Energies <================== 
	-----------------------------------------------------------
	 SCS Same-Spin Scale       =       0.3333333333333333 [-]
	 SCS Opposite-Spin Scale   =       1.2000000000000000 [-]
	 SCS Same-Spin Energy      =      -0.1435181477404417 [Eh]
	 SCS Opposite-Spin Energy  =      -1.4695642123700419 [Eh]
	 SCS Correlation Energy    =      -1.6130823601104836 [Eh]
	 SCS Total Energy          =    -464.3871904598866536 [Eh]
	-----------------------------------------------------------


  -Total Gradient:
     Atom            X                  Y                   Z
    ------   -----------------  -----------------  -----------------
       1       -0.008246988652    -0.001145750191    -0.002012462999
       2        0.004748454916    -0.034673440477     0.021741698135
       3        0.003516328302     0.013783702299     0.000866446609
       4       -0.004470135776     0.000604039646    -0.001535217666
       5       -0.000796060744     0.000224753355    -0.000098929438
       6       -0.000876546149    -0.000300430439     0.000502406610
       7       -0.000514794888    -0.000642637776    -0.000609139558
       8       -0.003163291532    -0.003000582065     0.005506920368
       9        0.001511937257    -0.000831309731     0.000239672837
      10       -0.001190775070    -0.000125809890    -0.000048448967
      11       -0.000584596901    -0.000237618235     0.000166515969
      12       -0.000637590209    -0.000541565494     0.000591220965
      13        0.000603854428     0.000910042289    -0.001402289830
      14        0.055211739396    -0.051062564616    -0.005847083442
      15       -0.002896982871     0.006606586541     0.000681011363
      16       -0.006356775776     0.004987299420    -0.001470232692
      17        0.161233463403     0.104996556442    -0.221052499633
      18       -0.036321667676    -0.006247927620    -0.045430348385
      19        0.004581296954    -0.003423352692    -0.006307835245
      20       -0.001118153206     0.000539780384     0.001543085962
      21        0.000293826084     0.001656185248     0.002441901801
      22        0.003150825159     0.000734617722     0.002852851614
      23        0.001258990163    -0.000364251644     0.000568274130
      24        0.006392895915     0.001617558754    -0.011297133216
      25        0.000445803339     0.001799010924     0.002387545688
      26        0.001266815471     0.001258191475     0.000362783497
      27       -0.177041871338    -0.037121083630     0.256659285527


*** tstop() called on skystd12.palmetto.clemson.edu at Wed Sep  8 18:04:13 2021
Module time:
	user time   =      63.73 seconds =       1.06 minutes
	system time =       3.13 seconds =       0.05 minutes
	total time  =         67 seconds =       1.12 minutes
Total time:
	user time   =      78.92 seconds =       1.32 minutes
	system time =       3.80 seconds =       0.06 minutes
	total time  =         84 seconds =       1.40 minutes

			-----------------------------------------
			 OPTKING 2.0: for geometry optimizations 
			  - R.A. King,  Bethel University        
			-----------------------------------------

	Internal coordinates to be generated automatically.
	Detected frag 1 with atoms:  1 2 3 4 5 6 7 8 9 10 11 12 13 14 15 16 17 18 19 20
	 21 22 23 24 25 26 27
	---Fragment 1 Bond Connectivity---
	 1 : 2 19 25 26
	 2 : 1 3 14 17
	 3 : 2 4 8
	 4 : 3 5 13
	 5 : 4 6 12
	 6 : 5 7 11
	 7 : 6 8 10
	 8 : 3 7 9
	 9 : 8
	 10 : 7
	 11 : 6
	 12 : 5
	 13 : 4
	 14 : 2 15 16 17
	 15 : 14
	 16 : 14
	 17 : 2 14 18 24 27
	 18 : 17 19 22 23
	 19 : 1 18 20 21
	 20 : 19
	 21 : 19
	 22 : 18
	 23 : 18
	 24 : 17
	 25 : 1
	 26 : 1
	 27 : 17

	---Fragment 1 Geometry and Gradient---
	 C           2.9140595723        2.5014402836        1.0161555815
	 C           1.3491773678        0.8348813649       -0.7857644196
	 C          -1.2465050847        0.0540068456       -0.0025712063
	 C          -1.5662769807       -1.6625183216        2.0120601469
	 C          -3.9894104305       -2.3631664079        2.8271462679
	 C          -6.1372996008       -1.3558762426        1.6329206149
	 C          -5.8424645307        0.3550118715       -0.3733902742
	 C          -3.4126225533        1.0567200942       -1.1788406817
	 H          -3.1832022427        2.4020274613       -2.7337148967
	 H          -7.5068710513        1.1480524476       -1.3104676653
	 H          -8.0287321490       -1.9064744054        2.2602681145
	 H          -4.2050697553       -3.7051762029        4.3859057598
	 H           0.1081942212       -2.4664286023        2.9265458621
	 C           2.0202758067        1.0450585943       -3.5587712128
	 H           0.5824398897        0.4792953793       -4.9313794532
	 H           3.2321874066        2.6174146656       -4.1442272637
	 C           3.2078288369       -1.0328218923       -1.9829248173
	 C           5.8296291941       -0.5313773957       -0.8790469703
	 C           5.3016434941        0.9327880755        1.5856982487
	 H           4.8574312430       -0.4368117210        3.0969160107
	 H           6.9154488183        2.0844287503        2.2304520157
	 H           6.8705583742       -2.3005219868       -0.5323540359
	 H           6.9799621785        0.6169279125       -2.1894151910
	 H           2.5953326948       -2.9730320512       -2.3504500925
	 H           1.8341396731        2.9561613017        2.7364356344
	 H           3.4134140318        4.3077652362        0.0949594487
	 H           4.2518835294       -0.8488433724       -3.2623975844
	            -0.0082469887       -0.0011457502       -0.0020124630
	             0.0047484549       -0.0346734405        0.0217416981
	             0.0035163283        0.0137837023        0.0008664466
	            -0.0044701358        0.0006040396       -0.0015352177
	            -0.0007960607        0.0002247534       -0.0000989294
	            -0.0008765461       -0.0003004304        0.0005024066
	            -0.0005147949       -0.0006426378       -0.0006091396
	            -0.0031632915       -0.0030005821        0.0055069204
	             0.0015119373       -0.0008313097        0.0002396728
	            -0.0011907751       -0.0001258099       -0.0000484490
	            -0.0005845969       -0.0002376182        0.0001665160
	            -0.0006375902       -0.0005415655        0.0005912210
	             0.0006038544        0.0009100423       -0.0014022898
	             0.0552117394       -0.0510625646       -0.0058470834
	            -0.0028969829        0.0066065865        0.0006810114
	            -0.0063567758        0.0049872994       -0.0014702327
	             0.1612334634        0.1049965564       -0.2210524996
	            -0.0363216677       -0.0062479276       -0.0454303484
	             0.0045812970       -0.0034233527       -0.0063078352
	            -0.0011181532        0.0005397804        0.0015430860
	             0.0002938261        0.0016561852        0.0024419018
	             0.0031508252        0.0007346177        0.0028528516
	             0.0012589902       -0.0003642516        0.0005682741
	             0.0063928959        0.0016175588       -0.0112971332
	             0.0004458033        0.0017990109        0.0023875457
	             0.0012668155        0.0012581915        0.0003627835
	            -0.1770418713       -0.0371210836        0.2566592855

	Previous optimization step data not found.  Starting new optimization.

	---Fragment 1 Intrafragment Coordinates---
	 - Coordinate -           - BOHR/RAD -       - ANG/DEG -
	 R(1,2)           =         2.910875	       1.540368
	 R(1,19)          =         2.913006	       1.541497
	 R(1,25)          =         2.081433	       1.101447
	 R(1,26)          =         2.088245	       1.105052
	 R(2,3)           =         2.821476	       1.493061
	 R(2,14)          =         2.860789	       1.513864
	 R(2,17)          =         2.894148	       1.531517
	 R(3,4)           =         2.665981	       1.410776
	 R(3,8)           =         2.661035	       1.408159
	 R(4,5)           =         2.650820	       1.402754
	 R(4,13)          =         2.070365	       1.095590
	 R(5,6)           =         2.655981	       1.405485
	 R(5,12)          =         2.068147	       1.094416
	 R(6,7)           =         2.653177	       1.404001
	 R(6,11)          =         2.067424	       1.094033
	 R(7,8)           =         2.654294	       1.404592
	 R(7,10)          =         2.068158	       1.094422
	 R(8,9)           =         2.068845	       1.094786
	 R(14,15)         =         2.066764	       1.093684
	 R(14,16)         =         2.069732	       1.095255
	 R(14,17)         =         2.865512	       1.516364
	 R(17,18)         =         2.888569	       1.528565
	 R(17,24)         =         2.067521	       1.094085
	 R(17,27)         =         1.661610	       0.879286
	 R(18,19)         =         2.915050	       1.542578
	 R(18,22)         =         2.081731	       1.101604
	 R(18,23)         =         2.087806	       1.104820
	 R(19,20)         =         2.087321	       1.104562
	 R(19,21)         =         2.084790	       1.103224
	 B(1,2,3)         =         2.072817	     118.763664
	 B(1,2,14)        =         2.017351	     115.585685
	 B(1,2,17)        =         1.854886	     106.277162
	 B(1,19,18)       =         1.827213	     104.691617
	 B(1,19,20)       =         1.897014	     108.690913
	 B(1,19,21)       =         1.979545	     113.419580
	 B(2,1,19)        =         1.826944	     104.676198
	 B(2,1,25)        =         1.936680	     110.963570
	 B(2,1,26)        =         1.929130	     110.530986
	 B(2,3,4)         =         2.092441	     119.888038
	 B(2,3,8)         =         2.119852	     121.458574
	 B(2,14,15)       =         2.049292	     117.415782
	 B(2,14,16)       =         2.057096	     117.862942
	 B(2,14,17)       =         1.059720	      60.717500
	 B(2,17,14)       =         1.039528	      59.560564
	 B(2,17,18)       =         1.888930	     108.227717
	 B(2,17,24)       =         2.081600	     119.266883
	 B(2,17,27)       =         2.279157	     130.586071
	 B(3,2,14)        =         2.100422	     120.345328
	 B(3,2,17)        =         2.125903	     121.805252
	 B(3,4,5)         =         2.108523	     120.809467
	 B(3,4,13)        =         2.079202	     119.129487
	 B(3,8,7)         =         2.107639	     120.758819
	 B(3,8,9)         =         2.079425	     119.142292
	 B(4,3,8)         =         2.070330	     118.621159
	 B(4,5,6)         =         2.095249	     120.048921
	 B(4,5,12)        =         2.092759	     119.906259
	 B(5,4,13)        =         2.095393	     120.057181
	 B(5,6,7)         =         2.088291	     119.650243
	 B(5,6,11)        =         2.097186	     120.159915
	 B(6,5,12)        =         2.095155	     120.043517
	 B(6,7,8)         =         2.096327	     120.110679
	 B(6,7,10)        =         2.094932	     120.030779
	 B(7,6,11)        =         2.097705	     120.189618
	 B(7,8,9)         =         2.096116	     120.098614
	 B(8,7,10)        =         2.091924	     119.858405
	 B(14,2,17)       =         1.042344	      59.721936
	 B(14,17,18)      =         2.049282	     117.415187
	 B(14,17,24)      =         2.048738	     117.384025
	 B(14,17,27)      =         1.324980	      75.915786
	 B(15,14,16)      =         2.012474	     115.306264
	 B(15,14,17)      =         2.043221	     117.067911
	 B(16,14,17)      =         2.053042	     117.630648
	 B(17,18,19)      =         1.819262	     104.236043
	 B(17,18,22)      =         1.949769	     111.713517
	 B(17,18,23)      =         1.934481	     110.837597
	 B(18,17,24)      =         2.094079	     119.981893
	 B(18,17,27)      =         1.271063	      72.826571
	 B(18,19,20)      =         1.897723	     108.731493
	 B(18,19,21)      =         1.980944	     113.499740
	 B(19,1,25)       =         1.962002	     112.414409
	 B(19,1,26)       =         1.934839	     110.858094
	 B(19,18,22)      =         1.956931	     112.123910
	 B(19,18,23)      =         1.932871	     110.745342
	 B(20,19,21)      =         1.878938	     107.655190
	 B(22,18,23)      =         1.871758	     107.243849
	 B(24,17,27)      =         1.724570	      98.810603
	 B(25,1,26)       =         1.875161	     107.438837
	 D(1,2,3,4)       =        -1.201325	     -68.830845
	 D(1,2,3,8)       =         1.903727	     109.075519
	 D(1,2,14,15)     =        -2.759824	    -158.126276
	 D(1,2,14,16)     =        -0.229547	     -13.152074
	 D(1,2,14,17)     =         1.651177	      94.605460
	 D(1,2,17,14)     =        -1.928884	    -110.516925
	 D(1,2,17,18)     =         0.019569	       1.121217
	 D(1,2,17,24)     =         2.497380	     143.089359
	 D(1,2,17,27)     =        -1.423665	     -81.569998
	 D(1,19,18,17)    =        -0.573602	     -32.864999
	 D(1,19,18,22)    =        -2.685602	    -153.873654
	 D(1,19,18,23)    =         1.507600	      86.379143
	 D(2,1,19,18)     =         0.589407	      33.770540
	 D(2,1,19,20)     =        -1.436065	     -82.280465
	 D(2,1,19,21)     =         2.757968	     158.019943
	 D(2,3,4,5)       =         3.108309	     178.092997
	 D(2,3,4,13)      =        -0.045760	      -2.621861
	 D(2,3,8,7)       =        -3.110817	    -178.236678
	 D(2,3,8,9)       =         0.027453	       1.572949
	 D(2,14,17,18)    =        -1.674893	     -95.964306
	 D(2,14,17,24)    =         1.911561	     109.524357
	 D(2,14,17,27)    =        -2.752926	    -157.731029
	 D(2,17,14,15)    =        -1.882068	    -107.834530
	 D(2,17,14,16)    =         1.887309	     108.134828
	 D(2,17,18,19)    =         0.342659	      19.632931
	 D(2,17,18,22)    =         2.459428	     140.914841
	 D(2,17,18,23)    =        -1.737450	     -99.548568
	 D(3,2,1,19)      =         2.100956	     120.375901
	 D(3,2,1,25)      =        -0.019558	      -1.120595
	 D(3,2,1,26)      =        -2.098070	    -120.210552
	 D(3,2,14,15)     =        -0.072653	      -4.162703
	 D(3,2,14,16)     =         2.457624	     140.811498
	 D(3,2,14,17)     =        -1.944837	    -111.430967
	 D(3,2,17,14)     =         1.903190	     109.044759
	 D(3,2,17,18)     =        -2.431542	    -139.317099
	 D(3,2,17,24)     =         0.046269	       2.651043
	 D(3,2,17,27)     =         2.408409	     137.991686
	 D(3,4,5,6)       =         0.001304	       0.074700
	 D(3,4,5,12)      =         3.135653	     179.659684
	 D(3,8,7,6)       =         0.004887	       0.280010
	 D(3,8,7,10)      =        -3.139052	    -179.854428
	 D(4,3,2,14)      =         2.408854	     138.017151
	 D(4,3,2,17)      =         1.168456	      66.947624
	 D(4,3,8,7)       =        -0.005315	      -0.304531
	 D(4,3,8,9)       =         3.132955	     179.505096
	 D(4,5,6,7)       =        -0.001796	      -0.102888
	 D(4,5,6,11)      =         3.136800	     179.725411
	 D(5,4,3,8)       =         0.002225	       0.127485
	 D(5,6,7,8)       =        -0.001268	      -0.072650
	 D(5,6,7,10)      =        -3.140510	    -179.937978
	 D(6,5,4,13)      =        -3.127697	    -179.203838
	 D(6,7,8,9)       =        -3.133351	    -179.527802
	 D(7,6,5,12)      =        -3.136135	    -179.687298
	 D(8,3,2,14)      =        -0.769280	     -44.076485
	 D(8,3,2,17)      =        -2.009677	    -115.146011
	 D(8,3,4,13)      =         3.131341	     179.412627
	 D(8,7,6,11)      =        -3.139863	    -179.900897
	 D(9,8,7,10)      =         0.005895	       0.337760
	 D(10,7,6,11)     =         0.004080	       0.233774
	 D(11,6,5,12)     =         0.002461	       0.141001
	 D(12,5,4,13)     =         0.006652	       0.381147
	 D(14,2,1,19)     =        -1.487484	     -85.226572
	 D(14,2,1,25)     =         2.675187	     153.276932
	 D(14,2,1,26)     =         0.596675	      34.186976
	 D(14,2,17,18)    =         1.948453	     111.638142
	 D(14,2,17,24)    =        -1.856921	    -106.393716
	 D(14,2,17,27)    =         0.505219	      28.946927
	 D(14,17,18,19)   =         1.468895	      84.161501
	 D(14,17,18,22)   =        -2.697521	    -154.556588
	 D(14,17,18,23)   =        -0.611214	     -35.019998
	 D(15,14,2,17)    =         1.872184	     107.268264
	 D(15,14,17,18)   =         2.726225	     156.201164
	 D(15,14,17,24)   =         0.029493	       1.689827
	 D(15,14,17,27)   =         1.648192	      94.434441
	 D(16,14,2,17)    =        -1.880724	    -107.757534
	 D(16,14,17,18)   =         0.212416	      12.170522
	 D(16,14,17,24)   =        -2.484316	    -142.340815
	 D(16,14,17,27)   =        -0.865617	     -49.596201
	 D(17,2,1,19)     =        -0.375127	     -21.493186
	 D(17,2,1,25)     =        -2.495641	    -142.989682
	 D(17,2,1,26)     =         1.709033	      97.920361
	 D(17,18,19,20)   =         1.451379	      83.157872
	 D(17,18,19,21)   =        -2.741271	    -157.063259
	 D(18,19,1,25)    =         2.693170	     154.307289
	 D(18,19,1,26)    =        -1.490910	     -85.422842
	 D(19,18,17,24)   =        -2.129570	    -122.015351
	 D(19,18,17,27)   =         2.576032	     147.595756
	 D(20,19,1,25)    =         0.667698	      38.256283
	 D(20,19,1,26)    =         2.766803	     158.526152
	 D(20,19,18,22)   =        -0.660621	     -37.850783
	 D(20,19,18,23)   =        -2.750604	    -157.597986
	 D(21,19,1,25)    =        -1.421454	     -81.443309
	 D(21,19,1,26)    =         0.677651	      38.826560
	 D(21,19,18,22)   =         1.429915	      81.928087
	 D(21,19,18,23)   =        -0.660068	     -37.819116
	 D(22,18,17,24)   =        -0.012801	      -0.733441
	 D(22,18,17,27)   =        -1.590385	     -91.122333
	 D(23,18,17,24)   =         2.073506	     118.803150
	 D(23,18,17,27)   =         0.495922	      28.414257

	Current energy   :      -464.4292993866

	Generating empirical Hessian (Schlegel '84) for each fragment.
	Taking PRFO optimization step.
	Maximizing along 1 lowest eigenvalue of Hessian.

 RFO min eigenvalues
 -0.127869 -0.000000 -0.000000 -0.000000 -0.000000 -0.000000 -0.000000 -0.000000
 -0.000000 -0.000000 -0.000000 -0.000000 -0.000000 -0.000000 -0.000000 -0.000000
 -0.000000 -0.000000 -0.000000 -0.000000 -0.000000 -0.000000 -0.000000 -0.000000
 -0.000000 -0.000000 -0.000000 -0.000000 -0.000000 -0.000000 -0.000000 -0.000000
 -0.000000 -0.000000 -0.000000 -0.000000 -0.000000 -0.000000 -0.000000 -0.000000
 -0.000000 -0.000000 -0.000000 -0.000000 -0.000000 -0.000000 -0.000000 -0.000000
 -0.000000 -0.000000 -0.000000 -0.000000 -0.000000  0.000000  0.000000  0.000000
  0.000000  0.000000  0.000000  0.000000  0.000000  0.000000  0.000000  0.000000
  0.000000  0.000000  0.000000  0.000000  0.000000  0.000000  0.000000  0.000000
  0.000000  0.000000  0.000000  0.000000  0.000000  0.000000  0.000000  0.000000
  0.000000  0.000000  0.000000  0.000000  0.000000  0.000000  0.000000  0.000000
  0.000000  0.000000  0.000000  0.000000  0.000000  0.000000  0.000000  0.000000
  0.000000  0.000000  0.000000  0.000000  0.000000  0.000000  0.000000  0.000000
  0.000000  0.000000  0.000000  0.000000  0.000000  0.000000  0.000000  0.003290
  0.005864  0.006306  0.012471  0.014105  0.016233  0.016991  0.017273  0.017342
  0.017497  0.017535  0.017591  0.017607  0.017664  0.018485  0.020763  0.023956
  0.029143  0.031208  0.040614  0.045144  0.049874  0.052583  0.057725  0.058529
  0.065249  0.069855  0.070034  0.072693  0.080782  0.082048  0.082912  0.088482
  0.102761  0.107671  0.112794  0.159991  0.159997  0.159999  0.160000  0.160031
  0.169897  0.202514  0.203837  0.219999  0.220001  0.234962  0.249851  0.264367
  0.268867  0.276544  0.293637  0.302935  0.331205  0.331300  0.331547  0.331828
  0.333289  0.335057  0.335236  0.341746  0.342124  0.342655  0.343067  0.343074
  0.343452  0.343507  0.343903  0.406932  0.407810  0.442330  0.445136  0.448686
  0.450589  0.883895

 RFO max eigenvalues
 -0.000000  0.000000
	|RFO target step|  :        0.4570118760
	RFO gradient       :       -0.2797943047
	RFO hessian        :        0.4932526406
	Projected Delta(E) :       -0.0631661167

	Back-transformation to cartesian coordinates...
	Could not converge backtransformation.
	Using first guess instead.

	--- Internal Coordinate Step in ANG or DEG, aJ/ANG or AJ/DEG ---
	 ---------------------------------------------------------------------------
	   Coordinate                Previous        Force       Change         New 
	   ----------                --------       ------       ------       ------
	    1 R(1,2)          =      1.540368     0.045841     0.005855     1.546224
	    2 R(1,19)         =      1.541497     0.045690     0.002790     1.544286
	    3 R(1,25)         =      1.101447    -0.017590    -0.002419     1.099027
	    4 R(1,26)         =      1.105052    -0.010144    -0.001408     1.103643
	    5 R(2,3)          =      1.493061    -0.037152    -0.005116     1.487944
	    6 R(2,14)         =      1.513864    -0.048410    -0.017757     1.496107
	    7 R(2,17)         =      1.531517     0.123437     0.023541     1.555058
	    8 R(3,4)          =      1.410776     0.001430     0.000302     1.411078
	    9 R(3,8)          =      1.408159    -0.002951    -0.000271     1.407888
	   10 R(4,5)          =      1.402754    -0.019961    -0.002204     1.400550
	   11 R(4,13)         =      1.095590     0.003991     0.000546     1.096136
	   12 R(5,6)          =      1.405485     0.007673     0.000825     1.406309
	   13 R(5,12)         =      1.094416    -0.007114    -0.000964     1.093452
	   14 R(6,7)          =      1.404001     0.006548     0.000717     1.404718
	   15 R(6,11)         =      1.094033    -0.005344    -0.000724     1.093309
	   16 R(7,8)          =      1.404592    -0.019571    -0.002162     1.402430
	   17 R(7,10)         =      1.094422    -0.007679    -0.001037     1.093385
	   18 R(8,9)          =      1.094786     0.004556     0.000653     1.095439
	   19 R(14,15)        =      1.093684     0.002022     0.000562     1.094247
	   20 R(14,16)        =      1.095255    -0.003975    -0.000462     1.094793
	   21 R(14,17)        =      1.516364     0.268195     0.050507     1.566871
	   22 R(17,18)        =      1.528565     0.326860     0.053123     1.581688
	   23 R(17,24)        =      1.094085     0.011564     0.001892     1.095976
	   24 R(17,27)        =      0.879286     2.578598     0.184650     1.063936
	   25 R(18,19)        =      1.542578    -0.010791    -0.001778     1.540800
	   26 R(18,22)        =      1.101604    -0.011751    -0.001529     1.100076
	   27 R(18,23)        =      1.104820    -0.001126    -0.000052     1.104767
	   28 R(19,20)        =      1.104562    -0.008247    -0.001009     1.103554
	   29 R(19,21)        =      1.103224    -0.015633    -0.002163     1.101060
	   30 B(1,2,3)        =    118.763664     0.000438     0.594283   119.357947
	   31 B(1,2,14)       =    115.585685     0.000184     0.959642   116.545327
	   32 B(1,2,17)       =    106.277162    -0.000230    -0.196588   106.080574
	   33 B(1,19,18)      =    104.691617     0.000249     0.366768   105.058385
	   34 B(1,19,20)      =    108.690913    -0.000012     0.193895   108.884808
	   35 B(1,19,21)      =    113.419580    -0.000003     0.100139   113.519719
	   36 B(2,1,19)       =    104.676198     0.000582     1.089893   105.766090
	   37 B(2,1,25)       =    110.963570    -0.000322    -0.805476   110.158094
	   38 B(2,1,26)       =    110.530986    -0.000164    -0.313713   110.217273
	   39 B(2,3,4)        =    119.888038    -0.000059    -0.128795   119.759242
	   40 B(2,3,8)        =    121.458574    -0.000432    -0.877761   120.580813
	   41 B(2,14,15)      =    117.415782     0.000118     0.355508   117.771290
	   42 B(2,14,16)      =    117.862942    -0.000149    -0.233615   117.629327
	   43 B(2,14,17)      =     60.717500     0.000045     0.251345    60.968845
	   44 B(2,17,14)      =     59.560564    -0.000894    -2.292430    57.268134
	   45 B(2,17,18)      =    108.227717    -0.000303    -1.137644   107.090073
	   46 B(2,17,24)      =    119.266883     0.000173    -0.020972   119.245911
	   47 B(2,17,27)      =    130.586071    -0.000646    -1.674443   128.911628
	   48 B(3,2,14)       =    120.345328    -0.000626    -1.479468   118.865860
	   49 B(3,2,17)       =    121.805252    -0.000561    -1.551175   120.254077
	   50 B(3,4,5)        =    120.809467    -0.000296    -0.616433   120.193034
	   51 B(3,4,13)       =    119.129487     0.000281     0.657332   119.786819
	   52 B(3,8,7)        =    120.758819    -0.000320    -0.672548   120.086272
	   53 B(3,8,9)        =    119.142292     0.000284     0.661090   119.803382
	   54 B(4,3,8)        =    118.621159     0.000489     0.999456   119.620615
	   55 B(4,5,6)        =    120.048921    -0.000029    -0.054588   119.994333
	   56 B(4,5,12)       =    119.906259    -0.000029    -0.085995   119.820265
	   57 B(5,4,13)       =    120.057181     0.000015    -0.040256   120.016925
	   58 B(5,6,7)        =    119.650243     0.000152     0.329558   119.979801
	   59 B(5,6,11)       =    120.159915    -0.000074    -0.160570   119.999345
	   60 B(6,5,12)       =    120.043517     0.000058     0.141088   120.184604
	   61 B(6,7,8)        =    120.110679     0.000004     0.014946   120.125625
	   62 B(6,7,10)       =    120.030779     0.000057     0.145741   120.176520
	   63 B(7,6,11)       =    120.189618    -0.000078    -0.168859   120.020759
	   64 B(7,8,9)        =    120.098614     0.000035     0.010241   120.108854
	   65 B(8,7,10)       =    119.858405    -0.000060    -0.160660   119.697745
	   66 B(14,2,17)      =     59.721936     0.000849     2.041085    61.763021
	   67 B(14,17,18)     =    117.415187     0.000176     0.953682   118.368869
	   68 B(14,17,24)     =    117.384025     0.000212     0.470588   117.854612
	   69 B(14,17,27)     =     75.915786     0.000135     0.265988    76.181775
	   70 B(15,14,16)     =    115.306264     0.000247     0.840575   116.146838
	   71 B(15,14,17)     =    117.067911    -0.000173    -0.841988   116.225924
	   72 B(16,14,17)     =    117.630648    -0.000233    -0.874505   116.756143
	   73 B(17,18,19)     =    104.236043    -0.000304    -0.208854   104.027189
	   74 B(17,18,22)     =    111.713517    -0.000093    -0.572322   111.141194
	   75 B(17,18,23)     =    110.837597     0.000059    -0.123942   110.713655
	   76 B(18,17,24)     =    119.981893     0.000072     0.185954   120.167847
	   77 B(18,17,27)     =     72.826571     0.000730     2.929421    75.755992
	   78 B(18,19,20)     =    108.731493    -0.000066    -0.265082   108.466411
	   79 B(18,19,21)     =    113.499740    -0.000239    -0.537491   112.962250
	   80 B(19,1,25)      =    112.414409    -0.000351    -0.910437   111.503973
	   81 B(19,1,26)      =    110.858094     0.000115     0.718597   111.576690
	   82 B(19,18,22)     =    112.123910     0.000455     1.058022   113.181932
	   83 B(19,18,23)     =    110.745342    -0.000111    -0.358045   110.387297
	   84 B(20,19,21)     =    107.655190     0.000071     0.144831   107.800021
	   85 B(22,18,23)     =    107.243849    -0.000007     0.180436   107.424284
	   86 B(24,17,27)     =     98.810603     0.000117     0.653096    99.463698
	   87 B(25,1,26)      =    107.438837     0.000131     0.201918   107.640755
	   88 D(1,2,3,4)      =    -68.830845     0.000054     0.867648   -67.963197
	   89 D(1,2,3,8)      =    109.075519     0.000047     0.671771   109.747290
	   90 D(1,2,14,15)    =   -158.126276    -0.000059    -0.906186  -159.032461
	   91 D(1,2,14,16)    =    -13.152074     0.000042     1.026725   -12.125349
	   92 D(1,2,14,17)    =     94.605460    -0.000004     0.165401    94.770861
	   93 D(1,2,17,14)    =   -110.516925    -0.000094    -1.391273  -111.908198
	   94 D(1,2,17,18)    =      1.121217    -0.000037     0.131095     1.252311
	   95 D(1,2,17,24)    =    143.089359    -0.000052    -1.058381   142.030977
	   96 D(1,2,17,27)    =    -81.569998    -0.000171    -2.437442   -84.007440
	   97 D(1,19,18,17)   =    -32.864999     0.000007     0.017264   -32.847735
	   98 D(1,19,18,22)   =   -153.873654     0.000020     0.269483  -153.604171
	   99 D(1,19,18,23)   =     86.379143    -0.000030    -0.425118    85.954025
	  100 D(2,1,19,18)    =     33.770540     0.000054     0.612854    34.383394
	  101 D(2,1,19,20)    =    -82.280465     0.000043     0.642452   -81.638013
	  102 D(2,1,19,21)    =    158.019943     0.000025     0.259912   158.279855
	  103 D(2,3,4,5)      =    178.092997    -0.000010    -0.207164   177.885832
	  104 D(2,3,4,13)     =     -2.621861    -0.000007    -0.145193    -2.767054
	  105 D(2,3,8,7)      =   -178.236678     0.000013     0.306005  -177.930673
	  106 D(2,3,8,9)      =      1.572949     0.000002     0.052571     1.625519
	  107 D(2,14,17,18)   =    -95.964306     0.000203     3.102203   -92.862103
	  108 D(2,14,17,24)   =    109.524357    -0.000043    -1.029997   108.494360
	  109 D(2,14,17,27)   =   -157.731029    -0.000008    -0.246838  -157.977867
	  110 D(2,17,14,15)   =   -107.834530    -0.000053    -0.866844  -108.701374
	  111 D(2,17,14,16)   =    108.134828    -0.000015     0.175282   108.310110
	  112 D(2,17,18,19)   =     19.632931     0.000020    -0.139972    19.492959
	  113 D(2,17,18,22)   =    140.914841     0.000091     0.694436   141.609278
	  114 D(2,17,18,23)   =    -99.548568     0.000083     0.463333   -99.085235
	  115 D(3,2,1,19)     =    120.375901    -0.000126    -2.240382   118.135519
	  116 D(3,2,1,25)     =     -1.120595    -0.000071    -1.367303    -2.487898
	  117 D(3,2,1,26)     =   -120.210552    -0.000037    -0.911100  -121.121651
	  118 D(3,2,14,15)    =     -4.162703    -0.000033    -0.556174    -4.718877
	  119 D(3,2,14,16)    =    140.811498     0.000069     1.376737   142.188235
	  120 D(3,2,14,17)    =   -111.430967     0.000023     0.515413  -110.915555
	  121 D(3,2,17,14)    =    109.044759    -0.000038    -0.313131   108.731628
	  122 D(3,2,17,18)    =   -139.317099     0.000019     1.209237  -138.107862
	  123 D(3,2,17,24)    =      2.651043     0.000004     0.019761     2.670804
	  124 D(3,2,17,27)    =    137.991686    -0.000115    -1.359300   136.632386
	  125 D(3,4,5,6)      =      0.074700    -0.000004    -0.082226    -0.007526
	  126 D(3,4,5,12)     =    179.659684     0.000000     0.008485   179.668169
	  127 D(3,8,7,6)      =      0.280010    -0.000006    -0.144432     0.135577
	  128 D(3,8,7,10)     =   -179.854428    -0.000006    -0.130511  -179.984939
	  129 D(4,3,2,14)     =    138.017151     0.000044     0.435776   138.452927
	  130 D(4,3,2,17)     =     66.947624    -0.000081    -0.803104    66.144520
	  131 D(4,3,8,7)      =     -0.304531     0.000004     0.087504    -0.217028
	  132 D(4,3,8,9)      =    179.505096    -0.000007    -0.165931   179.339165
	  133 D(4,5,6,7)      =     -0.102888     0.000001     0.027826    -0.075061
	  134 D(4,5,6,11)     =    179.725411     0.000004     0.087161   179.812572
	  135 D(5,4,3,8)      =      0.127485     0.000002     0.025713     0.153198
	  136 D(5,6,7,8)      =     -0.072650     0.000004     0.083725     0.011075
	  137 D(5,6,7,10)     =   -179.937978     0.000003     0.070152  -179.867827
	  138 D(6,5,4,13)     =   -179.203838    -0.000007    -0.149292  -179.353130
	  139 D(6,7,8,9)      =   -179.527802     0.000005     0.108553  -179.419249
	  140 D(7,6,5,12)     =   -179.687298    -0.000003    -0.062266  -179.749564
	  141 D(8,3,2,14)     =    -44.076485     0.000037     0.239899   -43.836586
	  142 D(8,3,2,17)     =   -115.146011    -0.000088    -0.998981  -116.144992
	  143 D(8,3,4,13)     =    179.412627     0.000004     0.087684   179.500311
	  144 D(8,7,6,11)     =   -179.900897     0.000001     0.024363  -179.876534
	  145 D(9,8,7,10)     =      0.337760     0.000005     0.122474     0.460234
	  146 D(10,7,6,11)    =      0.233774     0.000000     0.010790     0.244564
	  147 D(11,6,5,12)    =      0.141001    -0.000000    -0.002932     0.138069
	  148 D(12,5,4,13)    =      0.381147    -0.000003    -0.058581     0.322566
	  149 D(14,2,1,19)    =    -85.226572    -0.000167    -2.456515   -87.683087
	  150 D(14,2,1,25)    =    153.276932    -0.000111    -1.583436   151.693496
	  151 D(14,2,1,26)    =     34.186976    -0.000077    -1.127233    33.059743
	  152 D(14,2,17,18)   =    111.638142     0.000057     1.522367   113.160509
	  153 D(14,2,17,24)   =   -106.393716     0.000042     0.332891  -106.060825
	  154 D(14,2,17,27)   =     28.946927    -0.000077    -1.046169    27.900758
	  155 D(14,17,18,19)  =     84.161501    -0.000237    -3.149838    81.011663
	  156 D(14,17,18,22)  =   -154.556588    -0.000166    -2.315430  -156.872018
	  157 D(14,17,18,23)  =    -35.019998    -0.000173    -2.546533   -37.566530
	  158 D(15,14,2,17)   =    107.268264    -0.000056    -1.071586   106.196678
	  159 D(15,14,17,18)  =    156.201164     0.000150     2.235360   158.436524
	  160 D(15,14,17,24)  =      1.689827    -0.000096    -1.896841    -0.207014
	  161 D(15,14,17,27)  =     94.434441    -0.000061    -1.113682    93.320759
	  162 D(16,14,2,17)   =   -107.757534     0.000046     0.861324  -106.896210
	  163 D(16,14,17,18)  =     12.170522     0.000188     3.277486    15.448008
	  164 D(16,14,17,24)  =   -142.340815    -0.000058    -0.854715  -143.195530
	  165 D(16,14,17,27)  =    -49.596201    -0.000023    -0.071556   -49.667757
	  166 D(17,2,1,19)    =    -21.493186     0.000033    -0.168692   -21.661878
	  167 D(17,2,1,25)    =   -142.989682     0.000088     0.704387  -142.285296
	  168 D(17,2,1,26)    =     97.920361     0.000122     1.160590    99.080951
	  169 D(17,18,19,20)  =     83.157872     0.000026     0.303646    83.461517
	  170 D(17,18,19,21)  =   -157.063259     0.000001    -0.034891  -157.098149
	  171 D(18,19,1,25)   =    154.307289     0.000005    -0.180946   154.126343
	  172 D(18,19,1,26)   =    -85.422842     0.000007    -0.048311   -85.471153
	  173 D(19,18,17,24)  =   -122.015351     0.000025     1.162300  -120.853052
	  174 D(19,18,17,27)  =    147.595756    -0.000099    -1.237717   146.358039
	  175 D(20,19,1,25)   =     38.256283    -0.000006    -0.151348    38.104936
	  176 D(20,19,1,26)   =    158.526152    -0.000004    -0.018712   158.507440
	  177 D(20,19,18,22)  =    -37.850783     0.000039     0.555865   -37.294918
	  178 D(20,19,18,23)  =   -157.597986    -0.000011    -0.138737  -157.736723
	  179 D(21,19,1,25)   =    -81.443309    -0.000024    -0.533887   -81.977196
	  180 D(21,19,1,26)   =     38.826560    -0.000022    -0.401252    38.425308
	  181 D(21,19,18,22)  =     81.928087     0.000014     0.217328    82.145415
	  182 D(21,19,18,23)  =    -37.819116    -0.000036    -0.477273   -38.296390
	  183 D(22,18,17,24)  =     -0.733441     0.000096     1.996708     1.263268
	  184 D(22,18,17,27)  =    -91.122333    -0.000028    -0.403309   -91.525642
	  185 D(23,18,17,24)  =    118.803150     0.000088     1.765605   120.568755
	  186 D(23,18,17,27)  =     28.414257    -0.000035    -0.634412    27.779845
	 ---------------------------------------------------------------------------
	Successfully symmetrized geometry.

  ==> Convergence Check <==

  Measures of convergence in internal coordinates in au.
  Criteria marked as inactive (o), active & met (*), and active & unmet ( ).
  --------------------------------------------------------------------------------------------- ~
   Step     Total Energy     Delta E     MAX Force     RMS Force      MAX Disp      RMS Disp    ~
  --------------------------------------------------------------------------------------------- ~
    Convergence Criteria    1.00e-06 *    3.00e-04 *             o    1.20e-03 *             o  ~
  --------------------------------------------------------------------------------------------- ~
      1    -464.42929939   -4.64e+02      3.13e-01      2.36e-02 o    3.49e-01      3.21e-02 o  ~
  ---------------------------------------------------------------------------------------------

	Writing optimization data to binary file.
	Structure for next step:
	Cartesian Geometry (in Angstrom)
	    C     1.5483167262   1.3317724763   0.5308070927
	    C     0.7015344729   0.4574101730  -0.4227435931
	    C    -0.6616588008   0.0318789014  -0.0048862603
	    C    -0.8147382054  -0.8805988025   1.0605210346
	    C    -2.0945458714  -1.2533060679   1.4903134654
	    C    -3.2316839624  -0.7176384102   0.8596920840
	    C    -3.0833749727   0.1923346256  -0.2001128659
	    C    -1.8028475241   0.5680220443  -0.6312944955
	    H    -1.6875236390   1.2849265529  -1.4514983811
	    H    -3.9652746073   0.6124431929  -0.6912874786
	    H    -4.2307653962  -1.0108777369   1.1931164090
	    H    -2.2060840775  -1.9650258423   2.3129015466
	    H     0.0718540272  -1.3059962891   1.5447776411
	    C     1.0064900178   0.5721309463  -1.8829418046
	    H     0.2328212225   0.2607877771  -2.5913749370
	    H     1.6506145720   1.3971946808  -2.2037937064
	    C     1.6846023535  -0.5701297112  -1.0519845315
	    C     3.1092153871  -0.2966797185  -0.4215560341
	    C     2.8028831952   0.4952559385   0.8641593048
	    H     2.5518594921  -0.2215646995   1.6647756606
	    H     3.6555197045   1.1003931725   1.2093462106
	    H     3.6468233425  -1.2376996121  -0.2328090296
	    H     3.7303715711   0.3074588684  -1.1068968984
	    H     1.3466484007  -1.5983936124  -1.2241026791
	    H     0.9725678769   1.5725275759   1.4354679462
	    H     1.8140120254   2.2839889080   0.0401765504
	    H     2.3251863206  -0.4533699137  -1.8933999156
			--------------------------
			 OPTKING Finished Execution 
			--------------------------

    Structure for next step:
    Molecular point group: c1
    Full point group: C1

    Geometry (in Angstrom), charge = 1, multiplicity = 1:

    C            1.548590241208     1.330513936081     0.529113553241
    C            0.701807984589     0.456151629353    -0.424437136223
    C           -0.661385294466     0.030620355986    -0.006579801866
    C           -0.814464699674    -0.881857351417     1.058827497222
    C           -2.094272370783    -1.254564618282     1.488619929763
    C           -3.231410466239    -0.718896958517     0.857998545862
    C           -3.083101475896     0.191076080836    -0.201806408176
    C           -1.802574022318     0.566763501075    -0.632988039490
    H           -1.687250136714     1.283668012479    -1.453191928280
    H           -3.965001114022     0.611184649786    -0.692981022781
    H           -4.230491903936    -1.012136286391     1.191422872202
    H           -2.205810577246    -1.966284395496     2.311208014234
    H            0.072127536362    -1.307254839729     1.543084105627
    C            1.006763530689     0.570872403096    -1.884635353457
    H            0.233094732272     0.259529232675    -2.593068488732
    H            1.650888087373     1.395936140762    -2.205487256583
    C            1.684875868972    -0.571388258900    -1.053678077140
    C            3.109488908257    -0.297938265124    -0.423249577296
    C            2.803156715075     0.493997394954     0.862465766708
    H            2.552133011068    -0.222823245860     1.663082125613
    H            3.655793227797     1.099134631313     1.207652673816
    H            3.647096865725    -1.238958162465    -0.234502572064
    H            3.730645094640     0.306200324143    -1.108590444275
    H            1.346921914913    -1.599652164199    -1.225796225439
    H            0.972841389602     1.571269036588     1.433774410348
    H            1.814285541423     2.282730371509     0.038483009014
    H            2.325459838590    -0.454628460954    -1.895093464576


Scratch directory: /tmp/
gradient() will perform analytic gradient computation.

*** tstart() called on skystd12.palmetto.clemson.edu
*** at Wed Sep  8 18:04:13 2021

   => Loading Basis Set <=

    Name: CC-PVDZ
    Role: ORBITAL
    Keyword: BASIS
    atoms 1-8, 14, 17-19     entry C          line   138 file /home/maxbuskirk/.conda/envs/psifour/share/psi4/basis/cc-pvdz.gbs 
    atoms 9-13, 15-16, 20-27 entry H          line    22 file /home/maxbuskirk/.conda/envs/psifour/share/psi4/basis/cc-pvdz.gbs 


         ---------------------------------------------------------
                                   SCF
               by Justin Turney, Rob Parrish, Andy Simmonett
                          and Daniel G. A. Smith
                              RHF Reference
                        1 Threads,  30517 MiB Core
         ---------------------------------------------------------

  ==> Geometry <==

    Molecular point group: c1
    Full point group: C1

    Geometry (in Angstrom), charge = 1, multiplicity = 1:

       Center              X                  Y                   Z               Mass       
    ------------   -----------------  -----------------  -----------------  -----------------
         C            1.548590241208     1.330513936081     0.529113553241    12.000000000000
         C            0.701807984589     0.456151629353    -0.424437136223    12.000000000000
         C           -0.661385294466     0.030620355986    -0.006579801866    12.000000000000
         C           -0.814464699674    -0.881857351417     1.058827497222    12.000000000000
         C           -2.094272370783    -1.254564618282     1.488619929763    12.000000000000
         C           -3.231410466239    -0.718896958517     0.857998545862    12.000000000000
         C           -3.083101475896     0.191076080836    -0.201806408176    12.000000000000
         C           -1.802574022318     0.566763501075    -0.632988039490    12.000000000000
         H           -1.687250136714     1.283668012479    -1.453191928280     1.007825032230
         H           -3.965001114022     0.611184649786    -0.692981022781     1.007825032230
         H           -4.230491903936    -1.012136286391     1.191422872202     1.007825032230
         H           -2.205810577246    -1.966284395496     2.311208014234     1.007825032230
         H            0.072127536362    -1.307254839729     1.543084105627     1.007825032230
         C            1.006763530689     0.570872403096    -1.884635353457    12.000000000000
         H            0.233094732272     0.259529232675    -2.593068488732     1.007825032230
         H            1.650888087373     1.395936140762    -2.205487256583     1.007825032230
         C            1.684875868972    -0.571388258900    -1.053678077140    12.000000000000
         C            3.109488908257    -0.297938265124    -0.423249577296    12.000000000000
         C            2.803156715075     0.493997394954     0.862465766708    12.000000000000
         H            2.552133011068    -0.222823245860     1.663082125613     1.007825032230
         H            3.655793227797     1.099134631313     1.207652673816     1.007825032230
         H            3.647096865725    -1.238958162465    -0.234502572064     1.007825032230
         H            3.730645094640     0.306200324143    -1.108590444275     1.007825032230
         H            1.346921914913    -1.599652164199    -1.225796225439     1.007825032230
         H            0.972841389602     1.571269036588     1.433774410348     1.007825032230
         H            1.814285541423     2.282730371509     0.038483009014     1.007825032230
         H            2.325459838590    -0.454628460954    -1.895093464576     1.007825032230

  Running in c1 symmetry.

  Rotational constants: A =      0.07224  B =      0.02009  C =      0.01816 [cm^-1]
  Rotational constants: A =   2165.81190  B =    602.32661  C =    544.41776 [MHz]
  Nuclear repulsion =  681.405903945512023

  Charge       = 1
  Multiplicity = 1
  Electrons    = 86
  Nalpha       = 43
  Nbeta        = 43

  ==> Algorithm <==

  SCF Algorithm Type is DF.
  DIIS enabled.
  MOM disabled.
  Fractional occupation disabled.
  Guess Type is READ.
  Energy threshold   = 1.00e-10
  Density threshold  = 1.00e-10
  Integral threshold = 1.00e-12

  ==> Primary Basis <==

  Basis Set: CC-PVDZ
    Blend: CC-PVDZ
    Number of shells: 117
    Number of basis functions: 243
    Number of Cartesian functions: 255
    Spherical Harmonics?: true
    Max angular momentum: 2

   => Loading Basis Set <=

    Name: (CC-PVDZ AUX)
    Role: JKFIT
    Keyword: DF_BASIS_SCF
    atoms 1-8, 14, 17-19     entry C          line   121 file /home/maxbuskirk/.conda/envs/psifour/share/psi4/basis/cc-pvdz-jkfit.gbs 
    atoms 9-13, 15-16, 20-27 entry H          line    51 file /home/maxbuskirk/.conda/envs/psifour/share/psi4/basis/cc-pvdz-jkfit.gbs 

   => Loading Basis Set <=

    Name: CC-PVDZ
    Role: ORBITAL
    Keyword: BASIS
    atoms 1-8, 14, 17-19     entry C          line   138 file /home/maxbuskirk/.conda/envs/psifour/share/psi4/basis/cc-pvdz.gbs 
    atoms 9-13, 15-16, 20-27 entry H          line    22 file /home/maxbuskirk/.conda/envs/psifour/share/psi4/basis/cc-pvdz.gbs 

  Reading orbitals from file /tmp/3mckantoronald.mol.1183329.180.npy, no projection.

  ==> Integral Setup <==

  DFHelper Memory: AOs need 0.498 GiB; user supplied 22.352 GiB. Using in-core AOs.

  ==> MemDFJK: Density-Fitted J/K Matrices <==

    J tasked:                   Yes
    K tasked:                   Yes
    wK tasked:                   No
    OpenMP threads:               1
    Memory [MiB]:             22888
    Algorithm:                 Core
    Schwarz Cutoff:           1E-12
    Mask sparsity (%):       8.3050
    Fitting Condition:        1E-10

   => Auxiliary Basis Set <=

  Basis Set: (CC-PVDZ AUX)
    Blend: CC-PVDZ-JKFIT
    Number of shells: 423
    Number of basis functions: 1185
    Number of Cartesian functions: 1347
    Spherical Harmonics?: true
    Max angular momentum: 3

  Minimum eigenvalue in the overlap matrix is 3.3353527618E-04.
  Reciprocal condition number of the overlap matrix is 4.5863290667E-05.
    Using symmetric orthogonalization.

  ==> Pre-Iterations <==

  SCF Guess: Orbitals guess was supplied from a previous computation.

   -------------------------------------------------------
    Irrep   Nso     Nmo     Nalpha   Nbeta   Ndocc  Nsocc
   -------------------------------------------------------
     A        243     243      43      43      43       0
   -------------------------------------------------------
    Total     243     243      43      43      43       0
   -------------------------------------------------------

  ==> Iterations <==

                           Total Energy        Delta E     RMS |[F,P]|

   @DF-RHF iter   0:  -462.70462006614224   -4.62705e+02   1.74988e-03 
   @DF-RHF iter   1:  -462.84028436109378   -1.35664e-01   2.88863e-04 DIIS
   @DF-RHF iter   2:  -462.84266546711001   -2.38111e-03   1.48867e-04 DIIS
   @DF-RHF iter   3:  -462.84331393096744   -6.48464e-04   2.05235e-05 DIIS
   @DF-RHF iter   4:  -462.84333853183921   -2.46009e-05   8.48883e-06 DIIS
   @DF-RHF iter   5:  -462.84334335993083   -4.82809e-06   3.79844e-06 DIIS
   @DF-RHF iter   6:  -462.84334435835063   -9.98420e-07   1.43392e-06 DIIS
   @DF-RHF iter   7:  -462.84334456440433   -2.06054e-07   4.66371e-07 DIIS
   @DF-RHF iter   8:  -462.84334458491804   -2.05137e-08   1.92711e-07 DIIS
   @DF-RHF iter   9:  -462.84334458868682   -3.76878e-09   7.13038e-08 DIIS
   @DF-RHF iter  10:  -462.84334458921052   -5.23698e-10   3.50270e-08 DIIS
   @DF-RHF iter  11:  -462.84334458939122   -1.80705e-10   1.50089e-08 DIIS
   @DF-RHF iter  12:  -462.84334458942453   -3.33102e-11   7.11975e-09 DIIS
   @DF-RHF iter  13:  -462.84334458943260   -8.07177e-12   2.36406e-09 DIIS
   @DF-RHF iter  14:  -462.84334458943198    6.25278e-13   7.71057e-10 DIIS
   @DF-RHF iter  15:  -462.84334458943385   -1.87583e-12   2.81113e-10 DIIS
   @DF-RHF iter  16:  -462.84334458943295    9.09495e-13   9.32792e-11 DIIS
  Energy and wave function converged.


  ==> Post-Iterations <==

    Orbital Energies [Eh]
    ---------------------

    Doubly Occupied:                                                      

       1A    -11.485306     2A    -11.466351     3A    -11.457983  
       4A    -11.437810     5A    -11.397669     6A    -11.393492  
       7A    -11.392524     8A    -11.379047     9A    -11.377599  
      10A    -11.367390    11A    -11.366499    12A    -11.365727  
      13A     -1.410047    14A     -1.280518    15A     -1.223960  
      16A     -1.195977    17A     -1.140816    18A     -1.134674  
      19A     -1.038662    20A     -1.002839    21A     -0.972421  
      22A     -0.950776    23A     -0.937455    24A     -0.872427  
      25A     -0.823878    26A     -0.818972    27A     -0.788957  
      28A     -0.773178    29A     -0.763747    30A     -0.753606  
      31A     -0.731292    32A     -0.711489    33A     -0.698742  
      34A     -0.684072    35A     -0.654508    36A     -0.653476  
      37A     -0.645749    38A     -0.625738    39A     -0.623212  
      40A     -0.614489    41A     -0.598248    42A     -0.461820  
      43A     -0.459892  

    Virtual:                                                              

      44A     -0.052433    45A      0.001184    46A      0.002132  
      47A      0.014269    48A      0.036497    49A      0.048463  
      50A      0.050162    51A      0.076309    52A      0.091122  
      53A      0.095342    54A      0.101609    55A      0.117628  
      56A      0.122844    57A      0.133588    58A      0.142344  
      59A      0.152450    60A      0.161907    61A      0.167578  
      62A      0.192382    63A      0.205133    64A      0.219784  
      65A      0.232012    66A      0.240730    67A      0.269241  
      68A      0.298059    69A      0.316487    70A      0.324761  
      71A      0.340943    72A      0.354824    73A      0.358248  
      74A      0.380994    75A      0.413657    76A      0.438064  
      77A      0.446644    78A      0.484115    79A      0.490208  
      80A      0.510645    81A      0.515226    82A      0.523944  
      83A      0.546398    84A      0.558621    85A      0.570496  
      86A      0.577866    87A      0.594620    88A      0.600931  
      89A      0.607822    90A      0.610441    91A      0.616260  
      92A      0.636533    93A      0.646610    94A      0.654335  
      95A      0.659292    96A      0.665445    97A      0.678533  
      98A      0.685876    99A      0.692714   100A      0.696228  
     101A      0.704881   102A      0.707752   103A      0.719432  
     104A      0.732543   105A      0.738449   106A      0.746044  
     107A      0.750336   108A      0.753321   109A      0.759378  
     110A      0.766765   111A      0.777594   112A      0.786195  
     113A      0.789743   114A      0.799130   115A      0.812673  
     116A      0.834969   117A      0.861633   118A      0.869854  
     119A      0.925802   120A      0.966366   121A      0.981827  
     122A      1.007763   123A      1.020257   124A      1.025962  
     125A      1.035672   126A      1.050281   127A      1.074568  
     128A      1.099072   129A      1.112052   130A      1.116446  
     131A      1.129372   132A      1.139669   133A      1.155265  
     134A      1.163164   135A      1.168792   136A      1.189025  
     137A      1.212859   138A      1.221347   139A      1.253593  
     140A      1.283231   141A      1.311684   142A      1.316983  
     143A      1.326909   144A      1.355225   145A      1.393695  
     146A      1.425156   147A      1.447723   148A      1.458379  
     149A      1.501999   150A      1.512865   151A      1.551907  
     152A      1.557269   153A      1.593002   154A      1.599169  
     155A      1.610790   156A      1.621790   157A      1.633710  
     158A      1.640583   159A      1.656783   160A      1.672382  
     161A      1.682080   162A      1.687265   163A      1.704315  
     164A      1.728247   165A      1.734825   166A      1.740749  
     167A      1.744548   168A      1.758807   169A      1.765655  
     170A      1.768548   171A      1.781243   172A      1.790564  
     173A      1.801662   174A      1.807153   175A      1.818608  
     176A      1.822716   177A      1.825139   178A      1.833174  
     179A      1.850721   180A      1.855705   181A      1.866748  
     182A      1.877501   183A      1.889706   184A      1.920688  
     185A      1.933431   186A      1.939113   187A      1.945508  
     188A      1.971474   189A      1.982530   190A      1.989117  
     191A      2.018451   192A      2.021312   193A      2.039613  
     194A      2.047177   195A      2.055292   196A      2.060767  
     197A      2.084617   198A      2.093837   199A      2.113128  
     200A      2.119140   201A      2.129623   202A      2.142491  
     203A      2.174600   204A      2.177551   205A      2.196516  
     206A      2.212286   207A      2.228611   208A      2.239157  
     209A      2.262094   210A      2.278088   211A      2.288559  
     212A      2.295678   213A      2.344033   214A      2.346765  
     215A      2.372406   216A      2.396390   217A      2.419827  
     218A      2.437336   219A      2.461651   220A      2.507588  
     221A      2.567187   222A      2.587250   223A      2.589649  
     224A      2.614973   225A      2.626090   226A      2.634776  
     227A      2.644937   228A      2.665057   229A      2.693935  
     230A      2.721011   231A      2.742069   232A      2.754400  
     233A      2.789819   234A      2.819252   235A      2.835574  
     236A      2.868856   237A      2.881129   238A      2.953161  
     239A      2.984629   240A      3.024114   241A      3.054597  
     242A      3.128895   243A      3.782017  

    Final Occupation by Irrep:
              A 
    DOCC [    43 ]

  @DF-RHF Final Energy:  -462.84334458943295

   => Energetics <=

    Nuclear Repulsion Energy =            681.4059039455120228
    One-Electron Energy =               -1962.6324230778809579
    Two-Electron Energy =                 818.3831745429361035
    Total Energy =                       -462.8433445894329452

Computation Completed


Properties will be evaluated at   0.000000,   0.000000,   0.000000 [a0]

Properties computed using the SCF density matrix

  Nuclear Dipole Moment: [e a0]
[...]
	  152 D(14,2,17,18)   =    127.235016    -0.000000    -0.039827   127.195189
	  153 D(14,2,17,24)   =   -120.937582    -0.000000    -0.048996  -120.986577
	  154 D(14,2,17,27)   =      0.339430    -0.000000    -0.080888     0.258542
	  155 D(14,17,18,19)  =     57.323273     0.000000     0.051761    57.375034
	  156 D(14,17,18,22)  =    177.672430     0.000000     0.049521   177.721951
	  157 D(14,17,18,23)  =    -64.998226     0.000000     0.049304   -64.948922
	  158 D(15,14,2,17)   =    115.922014     0.000000     0.004793   115.926807
	  159 D(15,14,17,18)  =   -177.332873    -0.000000    -0.042164  -177.375037
	  160 D(15,14,17,24)  =    -54.205583    -0.000000    -0.062578   -54.268161
	  161 D(15,14,17,27)  =     60.764649    -0.000000    -0.056424    60.708225
	  162 D(16,14,2,17)   =   -113.086810     0.000000     0.026592  -113.060218
	  163 D(16,14,17,18)  =     60.470990    -0.000000    -0.056003    60.414987
	  164 D(16,14,17,24)  =   -176.401720    -0.000000    -0.076417  -176.478138
	  165 D(16,14,17,27)  =    -61.431488    -0.000000    -0.070263   -61.501751
	  166 D(17,2,1,19)    =    -32.424834     0.000000     0.021002   -32.403832
	  167 D(17,2,1,25)    =   -148.354077     0.000000     0.021884  -148.332193
	  168 D(17,2,1,26)    =     80.584467    -0.000000     0.018554    80.603021
	  169 D(17,18,19,20)  =     64.133863    -0.000000    -0.045056    64.088807
	  170 D(17,18,19,21)  =   -173.898140     0.000000    -0.029644  -173.927784
	  171 D(18,19,1,25)   =    177.530880    -0.000000    -0.002798   177.528082
	  172 D(18,19,1,26)   =    -60.216248    -0.000000    -0.020350   -60.236598
	  173 D(19,18,17,24)  =    -64.241106     0.000000     0.063283   -64.177823
	  174 D(19,18,17,27)  =    173.822334    -0.000000     0.042235   173.864569
	  175 D(20,19,1,25)   =     54.432251     0.000000     0.010830    54.443081
	  176 D(20,19,1,26)   =    176.685123    -0.000000    -0.006722   176.678401
	  177 D(20,19,18,22)  =    -56.212560    -0.000000    -0.046341   -56.258901
	  178 D(20,19,18,23)  =   -173.540675    -0.000000    -0.050979  -173.591654
	  179 D(21,19,1,25)   =    -60.544467     0.000000     0.013318   -60.531149
	  180 D(21,19,1,26)   =     61.708405    -0.000000    -0.004234    61.704171
	  181 D(21,19,18,22)  =     65.755436     0.000000    -0.030928    65.724507
	  182 D(21,19,18,23)  =    -51.572679     0.000000    -0.035567   -51.608246
	  183 D(22,18,17,24)  =     56.108051     0.000000     0.061043    56.169094
	  184 D(22,18,17,27)  =    -65.828509    -0.000000     0.039994   -65.788514
	  185 D(23,18,17,24)  =    173.437395     0.000000     0.060826   173.498221
	  186 D(23,18,17,27)  =     51.500835    -0.000000     0.039778    51.540613
	 ---------------------------------------------------------------------------
	Successfully symmetrized geometry.

  ==> Convergence Check <==

  Measures of convergence in internal coordinates in au.
  Criteria marked as inactive (o), active & met (*), and active & unmet ( ).
  ---------------------------------------------------------------------------------------------
   Step     Total Energy     Delta E     MAX Force     RMS Force      MAX Disp      RMS Disp   
  ---------------------------------------------------------------------------------------------
    Convergence Criteria    1.00e-06 *    3.00e-04 *             o    1.20e-03 *             o
  ---------------------------------------------------------------------------------------------
     43    -464.55503634   -8.75e-07 *    1.06e-04 *    1.51e-05 o    1.45e-03      4.51e-04 o  ~
  ---------------------------------------------------------------------------------------------


  **** Optimization is complete! (in 43 steps) ****

  ==> Optimization Summary <==

  Measures of convergence in internal coordinates in au.
  --------------------------------------------------------------------------------------------------------------- ~
   Step         Total Energy             Delta E       MAX Force       RMS Force        MAX Disp        RMS Disp  ~
  --------------------------------------------------------------------------------------------------------------- ~
      1    -464.429299386639   -464.429299386639      0.31298520      0.02359793      0.34893797      0.03208855  ~
      2    -464.500256860430     -0.070957473790      0.05209666      0.00495084      0.13889209      0.03668939  ~
      3    -464.517933096326     -0.017676235896      0.02342866      0.00269993      0.15949857      0.03671572  ~
      4    -464.528891308955     -0.010958212629      0.00935156      0.00152547      0.14803325      0.03589641  ~
      5    -464.534692429795     -0.005801120840      0.00727453      0.00109405      0.13654051      0.03644616  ~
      6    -464.537831130762     -0.003138700966      0.01558102      0.00140870      0.14617834      0.03643758  ~
      7    -464.540715352025     -0.002884221263      0.01978644      0.00169923      0.14925943      0.03661175  ~
      8    -464.543802163823     -0.003086811798      0.02017399      0.00174881      0.14566986      0.03670647  ~
      9    -464.546928213815     -0.003126049992      0.01489212      0.00145746      0.12530832      0.03660834  ~
     10    -464.549876612216     -0.002948398401      0.00820393      0.00126797      0.09990041      0.02948554  ~
     11    -464.552592005306     -0.002715393090      0.00752768      0.00126534      0.15867265      0.03667076  ~
     12    -464.550127046166      0.002464959140      0.00686216      0.00109768      0.09321412      0.02929363  ~
     13    -464.552601070886     -0.002474024720      0.00664097      0.00114695      0.16080514      0.03663038  ~
     14    -464.550178984577      0.002422086309      0.00699432      0.00141811      0.15568975      0.03666008  ~
     15    -464.548861590274      0.001317394303      0.00512270      0.00095395      0.14069248      0.03666648  ~
     16    -464.546898388951      0.001963201323      0.00453467      0.00081599      0.08281884      0.02612148  ~
     17    -464.548816901242     -0.001918512290      0.00473754      0.00084450      0.14533077      0.03665088  ~
     18    -464.547749894301      0.001067006941      0.00423814      0.00090124      0.09663769      0.02560274  ~
     19    -464.549756829116     -0.002006934815      0.00455138      0.00081858      0.11205968      0.03665587  ~
     20    -464.547888226742      0.001868602374      0.00503857      0.00079255      0.18251752      0.03657474  ~
     21    -464.547998561760     -0.000110335018      0.00966811      0.00119804      0.18133001      0.03660324  ~
     22    -464.546416590808      0.001581970952      0.01045922      0.00115519      0.14907893      0.03664860  ~
     23    -464.545608972110      0.000807618698      0.01115347      0.00115998      0.16030787      0.03668035  ~
     24    -464.548412732142     -0.002803760032      0.00418191      0.00065801      0.18722834      0.03669664  ~
     25    -464.550455405837     -0.002042673695      0.00364362      0.00078534      0.15050396      0.03671336  ~
     26    -464.553565544862     -0.003110139025      0.00719809      0.00112229      0.12651564      0.03666839  ~
     27    -464.553840236591     -0.000274691729      0.01028517      0.00111994      0.15737851      0.03666654  ~
     28    -464.553654317003      0.000185919588      0.00233477      0.00047161      0.08708061      0.03142340  ~
     29    -464.554228180510     -0.000573863507      0.00188162      0.00042519      0.06388118      0.01486288  ~
     30    -464.554348034486     -0.000119853976      0.00178764      0.00045942      0.04158178      0.00993246  ~
     31    -464.554547496414     -0.000199461927      0.00109957      0.00031153      0.06386272      0.01080920  ~
     32    -464.554892002408     -0.000344505994      0.00182739      0.00042149      0.14234413      0.03665307  ~
     33    -464.554798814383      0.000093188025      0.00184403      0.00039253      0.05296787      0.01130622  ~
     34    -464.554884444546     -0.000085630163      0.00154528      0.00028571      0.02463524      0.00744118  ~
     35    -464.554955507130     -0.000071062584      0.00111611      0.00022266      0.03038233      0.00717211  ~
     36    -464.554956225189     -0.000000718059      0.00074725      0.00015445      0.01581147      0.00386124  ~
     37    -464.554985993206     -0.000029768016      0.00042533      0.00010638      0.02284725      0.00751028  ~
     38    -464.554992945065     -0.000006951860      0.00065802      0.00012490      0.01430244      0.00326660  ~
     39    -464.555013516585     -0.000020571520      0.00046676      0.00008017      0.02574544      0.00636953  ~
     40    -464.555025953557     -0.000012436972      0.00060015      0.00008924      0.00623610      0.00182860  ~
     41    -464.555032922879     -0.000006969322      0.00019600      0.00004362      0.00370764      0.00102943  ~
     42    -464.555035470050     -0.000002547171      0.00012387      0.00002464      0.00389458      0.00121331  ~
     43    -464.555036344777     -0.000000874727      0.00010649      0.00001509      0.00144763      0.00045053  ~
  --------------------------------------------------------------------------------------------------------------- ~

	Writing optimization data to binary file.
	Final energy is   -464.5550363447766
	Final (previous) structure:
	Cartesian Geometry (in Angstrom)
	    C     1.4250559979   1.4626427483   0.5003909167
	    C     0.5060156614   0.7944941580  -0.4013296505
	    C    -0.6874679366   0.1114367007   0.1196890979
	    C    -0.6925815368  -1.2152065819   0.5980187777
	    C    -1.8936943004  -1.7649502691   1.0731672413
	    C    -3.0740575987  -1.0064145180   1.0731977976
	    C    -3.0608486074   0.3138213024   0.5951548467
	    C    -1.8726520348   0.8839453252   0.1152681567
	    H    -1.8683699283   1.9134656929  -0.2562847227
	    H    -3.9771732925   0.9101396980   0.5924250640
	    H    -4.0042102158  -1.4432351458   1.4453765987
	    H    -1.8995648674  -2.7931956049   1.4443603413
	    H     0.2189001806  -1.8174635602   0.6034530517
	    C     0.8932321482   0.6425971242  -1.7912473557
	    H     0.0840321043   0.2806959912  -2.4376967517
	    H     1.4093253459   1.5225266319  -2.2019688214
	    C     2.0038388513  -0.5151092650  -1.6442545157
	    C     3.1070540315  -0.0621716006  -0.6979274037
	    C     2.5375169047   0.3085137175   0.6642898366
	    H     2.0873116534  -0.5602018304   1.1704308160
	    H     3.2855049965   0.7427899718   1.3463640155
	    H     3.8374404170  -0.8804533597  -0.5748718371
	    H     3.6509092951   0.7954014965  -1.1295104221
	    H     1.5186785280  -1.4405858427  -1.2953398586
	    H     0.9943145450   1.6860049317   1.4843449190
	    H     1.9336187658   2.3262306194   0.0478376083
	    H     2.3570062598  -0.6896290463  -2.6728870764
	Saving final (previous) structure.
	Cleaning optimization helper files.
			--------------------------
			 OPTKING Finished Execution 
			--------------------------

    Final optimized geometry and variables:
    Molecular point group: c1
    Full point group: C1

    Geometry (in Angstrom), charge = 1, multiplicity = 1:

    C            1.425056003475     1.462642754007     0.500390918691
    C            0.506015663420     0.794494161141    -0.401329652114
    C           -0.687467939282     0.111436701139     0.119689098389
    C           -0.692581539549    -1.215206586661     0.598018780098
    C           -1.893694307828    -1.764950276072     1.073167245469
    C           -3.074057610775    -1.006414521991     1.073197801818
    C           -3.060848619460     0.313821303586     0.595154849046
    C           -1.872652042189     0.883945328722     0.115268157147
    H           -1.868369935673     1.913465700398    -0.256284723730
    H           -3.977173308145     0.910139701577     0.592425066336
    H           -4.004210231556    -1.443235151447     1.445376604402
    H           -1.899564874832    -2.793195615898     1.444360346993
    H            0.218900181462    -1.817463567391     0.603453054031
    C            0.893232151687     0.642597126731    -1.791247362760
    H            0.084032104657     0.280695992335    -2.437696761318
    H            1.409325351466     1.522526637924    -2.201968830067
    C            2.003838859184    -0.515109267042    -1.644254522177
    C            3.107054043743    -0.062171600837    -0.697927406458
    C            2.537516914692     0.308513718718     0.664289839188
    H            2.087311661567    -0.560201832608     1.170430820572
    H            3.285505009436     0.742789974697     1.346364020757
    H            3.837440432129    -0.880453363158    -0.574871839334
    H            3.650909309403     0.795401499632    -1.129510426513
    H            1.518678534004    -1.440585848322    -1.295339863661
    H            0.994314548954     1.686004938350     1.484344924865
    H            1.933618773431     2.326230628538     0.047837608444
    H            2.357006269054    -0.689629049008    -2.672887086946

	Removing binary optimization data file.
	Cleaning optimization helper files.


Properties will be evaluated at   0.000000,   0.000000,   0.000000 [a0]
OEProp: No title given, name of density matrix used for the following properties is 'DF-MP2 relaxed density'
  Mulliken Charges: (a.u.)
   Center  Symbol    Alpha    Beta     Spin     Total
       1     C     2.96982  2.96982  0.00000  0.06036
       2     C     3.04756  3.04756  0.00000 -0.09511
       3     C     3.03186  3.03186  0.00000 -0.06372
       4     C     3.01427  3.01427  0.00000 -0.02854
       5     C     2.99264  2.99264  0.00000  0.01473
       6     C     2.99665  2.99665  0.00000  0.00670
       7     C     2.99589  2.99589  0.00000  0.00821
       8     C     2.99232  2.99232  0.00000  0.01536
       9     H     0.47785  0.47785  0.00000  0.04430
      10     H     0.46704  0.46704  0.00000  0.06593
      11     H     0.46793  0.46793  0.00000  0.06414
      12     H     0.46908  0.46908  0.00000  0.06184
      13     H     0.48035  0.48035  0.00000  0.03930
      14     C     2.97003  2.97003  0.00000  0.05993
      15     H     0.44524  0.44524  0.00000  0.10952
      16     H     0.44665  0.44665  0.00000  0.10670
      17     C     3.05208  3.05208  0.00000 -0.10415
      18     C     3.03258  3.03258  0.00000 -0.06515
      19     C     3.05212  3.05212  0.00000 -0.10424
      20     H     0.45442  0.45442  0.00000  0.09117
      21     H     0.44421  0.44421  0.00000  0.11158
      22     H     0.44918  0.44918  0.00000  0.10164
      23     H     0.45971  0.45971  0.00000  0.08058
      24     H     0.45441  0.45441  0.00000  0.09117
      25     H     0.44520  0.44520  0.00000  0.10961
      26     H     0.44669  0.44669  0.00000  0.10662
      27     H     0.44424  0.44424  0.00000  0.11152

   Total alpha = 43.00000, Total beta = 43.00000, Total charge =  1.00000

    Molecular point group: c1
    Full point group: C1

    Geometry (in Angstrom), charge = 1, multiplicity = 1:

       Center              X                  Y                   Z               Mass       
    ------------   -----------------  -----------------  -----------------  -----------------
         C            1.425056003475     1.462642754007     0.500390918691    12.000000000000
         C            0.506015663420     0.794494161141    -0.401329652114    12.000000000000
         C           -0.687467939282     0.111436701139     0.119689098389    12.000000000000
         C           -0.692581539549    -1.215206586661     0.598018780098    12.000000000000
         C           -1.893694307828    -1.764950276072     1.073167245469    12.000000000000
         C           -3.074057610775    -1.006414521991     1.073197801818    12.000000000000
         C           -3.060848619460     0.313821303586     0.595154849046    12.000000000000
         C           -1.872652042189     0.883945328722     0.115268157147    12.000000000000
         H           -1.868369935673     1.913465700398    -0.256284723730     1.007825032230
         H           -3.977173308145     0.910139701577     0.592425066336     1.007825032230
         H           -4.004210231556    -1.443235151447     1.445376604402     1.007825032230
         H           -1.899564874832    -2.793195615898     1.444360346993     1.007825032230
         H            0.218900181462    -1.817463567391     0.603453054031     1.007825032230
         C            0.893232151687     0.642597126731    -1.791247362760    12.000000000000
         H            0.084032104657     0.280695992335    -2.437696761318     1.007825032230
         H            1.409325351466     1.522526637924    -2.201968830067     1.007825032230
         C            2.003838859184    -0.515109267042    -1.644254522177    12.000000000000
         C            3.107054043743    -0.062171600837    -0.697927406458    12.000000000000
         C            2.537516914692     0.308513718718     0.664289839188    12.000000000000
         H            2.087311661567    -0.560201832608     1.170430820572     1.007825032230
         H            3.285505009436     0.742789974697     1.346364020757     1.007825032230
         H            3.837440432129    -0.880453363158    -0.574871839334     1.007825032230
         H            3.650909309403     0.795401499632    -1.129510426513     1.007825032230
         H            1.518678534004    -1.440585848322    -1.295339863661     1.007825032230
         H            0.994314548954     1.686004938350     1.484344924865     1.007825032230
         H            1.933618773431     2.326230628538     0.047837608444     1.007825032230
         H            2.357006269054    -0.689629049008    -2.672887086946     1.007825032230



  Variable Map:
  ----------------------------------------------------------------------------
  "CURRENT CORRELATION ENERGY"           =>      -1.630920009913
  "CURRENT DIPOLE X"                     =>       2.990147805010
  "CURRENT DIPOLE Y"                     =>       1.459896411593
  "CURRENT DIPOLE Z"                     =>      -1.214176104241
  "CURRENT ENERGY"                       =>    -464.555036344777
  "CURRENT REFERENCE ENERGY"             =>    -462.924116334863
  "CUSTOM SCS-MP2 CORRELATION ENERGY"    =>      -1.593864857544
  "CUSTOM SCS-MP2 TOTAL ENERGY"          =>    -464.517981192407
  "HF TOTAL ENERGY"                      =>    -462.924116334863
  "MP2 CORRELATION ENERGY"               =>      -1.630920009913
  "MP2 DOUBLES ENERGY"                   =>      -1.630920009913
  "MP2 OPPOSITE-SPIN CORRELATION ENERGY" =>      -1.211797908738
  "MP2 SAME-SPIN CORRELATION ENERGY"     =>      -0.419122101176
  "MP2 SINGLES ENERGY"                   =>      -0.000000000000
  "MP2 TOTAL ENERGY"                     =>    -464.555036344777
  "NUCLEAR REPULSION ENERGY"             =>     675.412717919373
  "ONE-ELECTRON ENERGY"                  =>   -1950.439671670032
  "OPTIMIZATION ITERATIONS"              =>      43.000000000000
  "PCM POLARIZATION ENERGY"              =>       0.000000000000
  "PE ENERGY"                            =>       0.000000000000
  "SCF DIPOLE X"                         =>       2.990147805010
  "SCF DIPOLE Y"                         =>       1.459896411593
  "SCF DIPOLE Z"                         =>      -1.214176104241
  "SCF ITERATION ENERGY"                 =>    -462.924116334863
  "SCF ITERATIONS"                       =>      13.000000000000
  "SCF TOTAL ENERGY"                     =>    -462.924116334863
  "SCS-MP2 CORRELATION ENERGY"           =>      -1.593864857544
  "SCS-MP2 TOTAL ENERGY"                 =>    -464.517981192407
  "TWO-ELECTRON ENERGY"                  =>     812.102837415796



    Psi4 stopped on: Wednesday, 08 September 2021 07:02PM
    Psi4 wall time for execution: 0:59:58.68

*** Psi4 exiting successfully. Buy a developer a beer!
