
    -----------------------------------------------------------------------
          Psi4: An Open-Source Ab Initio Electronic Structure Package
                               Psi4 1.4 release

                         Git: Rev {HEAD} 9485035 


    D. G. A. Smith, L. A. Burns, A. C. Simmonett, R. M. Parrish,
    M. C. Schieber, R. Galvelis, P. Kraus, H. Kruse, R. Di Remigio,
    A. Alenaizan, A. M. James, S. Lehtola, J. P. Misiewicz, M. Scheurer,
    R. A. Shaw, J. B. Schriber, Y. Xie, Z. L. Glick, D. A. Sirianni,
    J. S. O'Brien, J. M. Waldrop, A. Kumar, E. G. Hohenstein,
    B. P. Pritchard, B. R. Brooks, H. F. Schaefer III, A. Yu. Sokolov,
    K. Patkowski, A. E. DePrince III, U. Bozkaya, R. A. King,
    F. A. Evangelista, J. M. Turney, T. D. Crawford, C. D. Sherrill,
    J. Chem. Phys. 152(18) 184108 (2020). https://doi.org/10.1063/5.0006002

                            Additional Code Authors
    E. T. Seidl, C. L. Janssen, E. F. Valeev, M. L. Leininger,
    J. F. Gonthier, R. M. Richard, H. R. McAlexander, M. Saitow, X. Wang,
    P. Verma, and M. H. Lechner

             Previous Authors, Complete List of Code Contributors,
                       and Citations for Specific Modules
    https://github.com/psi4/psi4/blob/master/codemeta.json
    https://github.com/psi4/psi4/graphs/contributors
    http://psicode.org/psi4manual/master/introduction.html#citing-psifour

    -----------------------------------------------------------------------


    Psi4 started on: Thursday, 25 November 2021 11:43PM

    Process ID: 789199
    Host:       skystd28.palmetto.clemson.edu
    PSIDATADIR: /home/maxbuskirk/.conda/envs/psifour/share/psi4
    Memory:     500.0 MiB
    Threads:    1
    
  ==> Input File <==

--------------------------------------------------------------------------
molecule mol {
0 1
 C     0.355130     0.111221    -1.467412
 C    -0.000000    -0.000000     0.000000
 C     0.828100     0.881905     0.953535
 C     2.091555     0.051810     1.254924
 C     2.370953    -0.722993    -0.049363
 C     0.983556    -0.988346    -0.633510
 C    -1.373576    -0.413221     0.414448
 C    -1.542792    -1.321567     1.480545
 C    -2.825059    -1.692334     1.911870
 C    -3.961673    -1.159299     1.279913
 C    -3.805653    -0.253936     0.218219
 C    -2.519836     0.117392    -0.208007
 H    -2.398432     0.829298    -1.030811
 H    -4.686419     0.165723    -0.277661
Cl    -5.553554    -1.622698     1.807905
 H    -2.939181    -2.402495     2.736730
 H    -0.656700    -1.746978     1.964470
 H     0.659437    -2.015061    -0.827996
 H    -0.405740    -0.188168    -2.193765
 H     0.996446     0.943276    -1.777222
 H     2.921789    -1.659184     0.134099
 H     2.979683    -0.115336    -0.742780
 H     1.856488    -0.672951     2.054626
 H     2.945544     0.661232     1.596113
 H     0.256631     1.122533     1.863868
 H     1.092347     1.837771     0.466059
}

set scf_type df
set basis cc-pVTZ
set reference rhf

mol.update_geometry()
mol.symmetrize(1e-3)

e, wfn = optimize('mp2', return_wfn=True)
oeprop(wfn, "MULLIKEN_CHARGES")
mol.print_out()
print_variables()
--------------------------------------------------------------------------

Scratch directory: /local_scratch/pbs.4080490.pbs02/
gradient() will perform analytic gradient computation.

*** tstart() called on skystd28.palmetto.clemson.edu
*** at Thu Nov 25 23:43:28 2021

   => Loading Basis Set <=

    Name: CC-PVTZ
    Role: ORBITAL
    Keyword: BASIS
    atoms 1-12         entry C          line   186 file /home/maxbuskirk/.conda/envs/psifour/share/psi4/basis/cc-pvtz.gbs 
    atoms 13-14, 16-26 entry H          line    23 file /home/maxbuskirk/.conda/envs/psifour/share/psi4/basis/cc-pvtz.gbs 
    atoms 15           entry CL         line   847 file /home/maxbuskirk/.conda/envs/psifour/share/psi4/basis/cc-pvtz.gbs 


         ---------------------------------------------------------
                                   SCF
               by Justin Turney, Rob Parrish, Andy Simmonett
                          and Daniel G. A. Smith
                              RHF Reference
                        1 Threads,    500 MiB Core
         ---------------------------------------------------------

  ==> Geometry <==

    Molecular point group: c1
    Full point group: C1

    Geometry (in Angstrom), charge = 0, multiplicity = 1:

       Center              X                  Y                   Z               Mass       
    ------------   -----------------  -----------------  -----------------  -----------------
         C            1.939706593143     0.760367789201    -2.139451782716    12.000000000000
         C            1.584576593143     0.649146789201    -0.672039782716    12.000000000000
         C            2.412676593143     1.531051789201     0.281495217284    12.000000000000
         C            3.676131593143     0.700956789201     0.582884217284    12.000000000000
         C            3.955529593143    -0.073846210799    -0.721402782716    12.000000000000
         C            2.568132593143    -0.339199210799    -1.305549782716    12.000000000000
         C            0.211000593143     0.235925789201    -0.257591782716    12.000000000000
         C            0.041784593143    -0.672420210799     0.808505217284    12.000000000000
         C           -1.240482406857    -1.043187210799     1.239830217284    12.000000000000
         C           -2.377096406857    -0.510152210799     0.607873217284    12.000000000000
         C           -2.221076406857     0.395210789201    -0.453820782716    12.000000000000
         C           -0.935259406857     0.766538789201    -0.880046782716    12.000000000000
         H           -0.813855406857     1.478444789201    -1.702850782716     1.007825032230
         H           -3.101842406857     0.814869789201    -0.949700782716     1.007825032230
         CL          -3.968977406857    -0.973551210799     1.135865217284    34.968852682000
         H           -1.354604406857    -1.753348210799     2.064690217284     1.007825032230
         H            0.927876593143    -1.097831210799     1.292430217284     1.007825032230
         H            2.244013593143    -1.365914210799    -1.500035782716     1.007825032230
         H            1.178836593143     0.460978789201    -2.865804782716     1.007825032230
         H            2.581022593143     1.592422789201    -2.449261782716     1.007825032230
         H            4.506365593143    -1.010037210799    -0.537940782716     1.007825032230
         H            4.564259593143     0.533810789201    -1.414819782716     1.007825032230
         H            3.441064593143    -0.023804210799     1.382586217284     1.007825032230
         H            4.530120593143     1.310378789201     0.924073217284     1.007825032230
         H            1.841207593143     1.771679789201     1.191828217284     1.007825032230
         H            2.676923593143     2.486917789201    -0.205980782716     1.007825032230

  Running in c1 symmetry.

  Rotational constants: A =      0.07215  B =      0.01068  C =      0.01008 [cm^-1]
  Rotational constants: A =   2163.05910  B =    320.20439  C =    302.21330 [MHz]
  Nuclear repulsion =  828.497759194213927

  Charge       = 0
  Multiplicity = 1
  Electrons    = 102
  Nalpha       = 51
  Nbeta        = 51

  ==> Algorithm <==

  SCF Algorithm Type is DF.
  DIIS enabled.
  MOM disabled.
  Fractional occupation disabled.
  Guess Type is SAD.
  Energy threshold   = 1.00e-10
  Density threshold  = 1.00e-10
  Integral threshold = 1.00e-12

  ==> Primary Basis <==

  Basis Set: CC-PVTZ
    Blend: CC-PVTZ
    Number of shells: 210
    Number of basis functions: 576
    Number of Cartesian functions: 654
    Spherical Harmonics?: true
    Max angular momentum: 3

   => Loading Basis Set <=

    Name: (CC-PVTZ AUX)
    Role: JKFIT
    Keyword: DF_BASIS_SCF
    atoms 1-12         entry C          line   125 file /home/maxbuskirk/.conda/envs/psifour/share/psi4/basis/cc-pvtz-jkfit.gbs 
    atoms 13-14, 16-26 entry H          line    51 file /home/maxbuskirk/.conda/envs/psifour/share/psi4/basis/cc-pvtz-jkfit.gbs 
    atoms 15           entry CL         line   689 file /home/maxbuskirk/.conda/envs/psifour/share/psi4/basis/cc-pvtz-jkfit.gbs 

  ==> Integral Setup <==

  ==> DiskDFJK: Density-Fitted J/K Matrices <==

    J tasked:                  Yes
    K tasked:                  Yes
    wK tasked:                  No
    OpenMP threads:              1
    Integrals threads:           1
    Memory [MiB]:              375
    Algorithm:                Disk
    Integral Cache:           NONE
    Schwarz Cutoff:          1E-12
    Fitting Condition:       1E-10

   => Auxiliary Basis Set <=

  Basis Set: (CC-PVTZ AUX)
    Blend: CC-PVTZ-JKFIT
    Number of shells: 467
    Number of basis functions: 1459
    Number of Cartesian functions: 1752
    Spherical Harmonics?: true
    Max angular momentum: 4

  Minimum eigenvalue in the overlap matrix is 3.2635725272E-05.
  Reciprocal condition number of the overlap matrix is 3.3983091502E-06.
    Using symmetric orthogonalization.

  ==> Pre-Iterations <==

  SCF Guess: Superposition of Atomic Densities via on-the-fly atomic UHF (no occupation information).

   -------------------------
    Irrep   Nso     Nmo    
   -------------------------
     A        576     576 
   -------------------------
    Total     576     576
   -------------------------

  ==> Iterations <==

                           Total Energy        Delta E     RMS |[F,P]|

   @DF-RHF iter SAD:  -921.77269769786892   -9.21773e+02   0.00000e+00 
   @DF-RHF iter   1:  -921.29823257888984    4.74465e-01   1.21392e-03 DIIS
   @DF-RHF iter   2:  -921.54558996024980   -2.47357e-01   6.27060e-04 DIIS
   @DF-RHF iter   3:  -921.61187446501310   -6.62845e-02   1.48890e-04 DIIS
   @DF-RHF iter   4:  -921.61703440039730   -5.15994e-03   6.61131e-05 DIIS
   @DF-RHF iter   5:  -921.61788910286191   -8.54702e-04   1.38629e-05 DIIS
   @DF-RHF iter   6:  -921.61795111345850   -6.20106e-05   5.38192e-06 DIIS
   @DF-RHF iter   7:  -921.61796324805709   -1.21346e-05   2.24822e-06 DIIS
   @DF-RHF iter   8:  -921.61796685137517   -3.60332e-06   1.20550e-06 DIIS
   @DF-RHF iter   9:  -921.61796819360370   -1.34223e-06   4.71843e-07 DIIS
   @DF-RHF iter  10:  -921.61796840186798   -2.08264e-07   1.78896e-07 DIIS
   @DF-RHF iter  11:  -921.61796842542674   -2.35588e-08   6.99497e-08 DIIS
   @DF-RHF iter  12:  -921.61796842776926   -2.34252e-09   2.34473e-08 DIIS
   @DF-RHF iter  13:  -921.61796842800049   -2.31239e-10   6.55543e-09 DIIS
   @DF-RHF iter  14:  -921.61796842801323   -1.27329e-11   1.95644e-09 DIIS
   @DF-RHF iter  15:  -921.61796842801800   -4.77485e-12   5.85546e-10 DIIS
   @DF-RHF iter  16:  -921.61796842801664    1.36424e-12   2.73476e-10 DIIS
   @DF-RHF iter  17:  -921.61796842801914   -2.50111e-12   1.38614e-10 DIIS
   @DF-RHF iter  18:  -921.61796842801732    1.81899e-12   7.44286e-11 DIIS
  Energy and wave function converged.


  ==> Post-Iterations <==

    Orbital Energies [Eh]
    ---------------------

    Doubly Occupied:                                                      

       1A   -104.837040     2A    -11.302570     3A    -11.252068  
       4A    -11.251594     5A    -11.251188     6A    -11.246544  
       7A    -11.245815     8A    -11.242479     9A    -11.233711  
      10A    -11.231868    11A    -11.228422    12A    -11.227650  
      13A    -11.226461    14A    -10.561936    15A     -8.028835  
      16A     -8.026941    17A     -8.026910    18A     -1.190471  
      19A     -1.172626    20A     -1.110866    21A     -1.036246  
      22A     -1.021129    23A     -1.000317    24A     -0.952055  
      25A     -0.849126    26A     -0.834316    27A     -0.814660  
      28A     -0.778051    29A     -0.746068    30A     -0.698677  
      31A     -0.651858    32A     -0.646010    33A     -0.632930  
      34A     -0.623349    35A     -0.592989    36A     -0.579769  
      37A     -0.570833    38A     -0.569226    39A     -0.539184  
      40A     -0.529787    41A     -0.511353    42A     -0.487810  
      43A     -0.484198    44A     -0.476286    45A     -0.473500  
      46A     -0.456374    47A     -0.451287    48A     -0.412687  
      49A     -0.391828    50A     -0.345732    51A     -0.318917  

    Virtual:                                                              

      52A      0.110500    53A      0.115819    54A      0.134161  
      55A      0.150651    56A      0.154261    57A      0.165185  
      58A      0.179167    59A      0.180623    60A      0.191755  
      61A      0.204468    62A      0.209043    63A      0.211157  
      64A      0.216255    65A      0.226152    66A      0.253920  
      67A      0.262231    68A      0.274731    69A      0.278401  
      70A      0.293267    71A      0.299864    72A      0.317604  
      73A      0.334903    74A      0.340682    75A      0.366770  
      76A      0.375022    77A      0.391120    78A      0.405079  
      79A      0.410408    80A      0.416400    81A      0.422450  
      82A      0.424647    83A      0.429475    84A      0.431457  
      85A      0.441449    86A      0.447726    87A      0.461756  
      88A      0.473019    89A      0.482736    90A      0.491419  
      91A      0.494700    92A      0.500008    93A      0.515076  
      94A      0.524587    95A      0.529241    96A      0.531920  
      97A      0.549447    98A      0.553215    99A      0.558481  
     100A      0.570374   101A      0.572912   102A      0.586257  
     103A      0.589632   104A      0.591041   105A      0.598041  
     106A      0.604740   107A      0.606062   108A      0.609552  
     109A      0.615807   110A      0.621185   111A      0.625540  
     112A      0.636527   113A      0.643742   114A      0.647195  
     115A      0.650465   116A      0.658585   117A      0.659329  
     118A      0.672647   119A      0.674237   120A      0.681328  
     121A      0.688947   122A      0.694118   123A      0.707852  
     124A      0.713152   125A      0.716618   126A      0.729082  
     127A      0.733239   128A      0.749994   129A      0.765746  
     130A      0.783925   131A      0.802731   132A      0.805061  
     133A      0.811996   134A      0.830035   135A      0.847772  
     136A      0.851520   137A      0.860309   138A      0.866151  
     139A      0.878327   140A      0.906854   141A      0.912655  
     142A      0.931816   143A      0.942683   144A      0.948271  
     145A      0.953840   146A      0.979053   147A      0.990331  
     148A      0.991869   149A      1.003383   150A      1.015647  
     151A      1.018114   152A      1.019605   153A      1.031613  
     154A      1.035748   155A      1.041299   156A      1.061298  
     157A      1.069834   158A      1.079167   159A      1.085803  
     160A      1.101621   161A      1.115682   162A      1.126735  
     163A      1.133368   164A      1.146187   165A      1.161801  
     166A      1.179554   167A      1.189806   168A      1.195625  
     169A      1.199241   170A      1.206834   171A      1.221991  
     172A      1.227508   173A      1.233858   174A      1.252627  
     175A      1.256702   176A      1.268260   177A      1.280084  
     178A      1.291867   179A      1.294232   180A      1.297904  
     181A      1.313478   182A      1.319511   183A      1.332127  
     184A      1.337606   185A      1.349026   186A      1.355764  
     187A      1.362422   188A      1.378862   189A      1.384913  
     190A      1.396029   191A      1.404484   192A      1.409866  
     193A      1.427458   194A      1.437188   195A      1.447164  
     196A      1.451146   197A      1.458604   198A      1.473521  
     199A      1.479566   200A      1.493475   201A      1.497675  
     202A      1.513030   203A      1.521072   204A      1.524661  
     205A      1.533365   206A      1.547982   207A      1.549994  
     208A      1.557499   209A      1.566799   210A      1.570603  
     211A      1.578619   212A      1.583369   213A      1.597718  
     214A      1.603800   215A      1.613124   216A      1.628340  
     217A      1.642389   218A      1.654920   219A      1.679245  
     220A      1.687850   221A      1.696110   222A      1.708869  
     223A      1.716582   224A      1.730965   225A      1.736469  
     226A      1.744932   227A      1.753057   228A      1.758411  
     229A      1.767986   230A      1.791238   231A      1.797204  
     232A      1.827097   233A      1.837021   234A      1.860460  
     235A      1.879752   236A      1.903869   237A      1.912114  
     238A      1.931237   239A      1.961189   240A      1.984916  
     241A      1.994936   242A      2.011647   243A      2.040484  
     244A      2.056410   245A      2.114209   246A      2.130046  
     247A      2.160419   248A      2.172767   249A      2.251507  
     250A      2.257766   251A      2.277505   252A      2.320139  
     253A      2.332209   254A      2.351418   255A      2.371609  
     256A      2.387124   257A      2.398455   258A      2.419630  
     259A      2.430017   260A      2.441547   261A      2.464444  
     262A      2.474437   263A      2.479179   264A      2.493557  
     265A      2.547717   266A      2.562974   267A      2.583842  
     268A      2.589680   269A      2.594466   270A      2.618330  
     271A      2.631719   272A      2.641889   273A      2.649890  
     274A      2.659237   275A      2.663908   276A      2.674887  
     277A      2.683126   278A      2.699343   279A      2.704640  
     280A      2.710453   281A      2.738849   282A      2.741970  
     283A      2.763521   284A      2.783862   285A      2.795376  
     286A      2.805499   287A      2.810191   288A      2.819059  
     289A      2.831299   290A      2.841379   291A      2.847130  
     292A      2.862473   293A      2.864298   294A      2.871842  
     295A      2.880491   296A      2.888637   297A      2.901849  
     298A      2.912805   299A      2.928781   300A      2.930965  
     301A      2.944850   302A      2.960254   303A      2.981333  
     304A      2.993131   305A      3.003187   306A      3.007245  
     307A      3.014375   308A      3.020200   309A      3.028636  
     310A      3.041866   311A      3.047459   312A      3.058581  
     313A      3.065333   314A      3.075510   315A      3.086827  
     316A      3.093671   317A      3.104654   318A      3.123144  
     319A      3.145510   320A      3.154783   321A      3.161396  
     322A      3.163759   323A      3.181506   324A      3.191126  
     325A      3.209689   326A      3.224176   327A      3.237944  
     328A      3.244729   329A      3.252454   330A      3.260947  
     331A      3.263892   332A      3.276608   333A      3.287854  
     334A      3.289857   335A      3.304903   336A      3.315697  
     337A      3.335470   338A      3.339126   339A      3.345524  
     340A      3.355749   341A      3.366756   342A      3.370516  
     343A      3.375455   344A      3.381343   345A      3.392390  
     346A      3.396451   347A      3.405184   348A      3.410836  
     349A      3.414976   350A      3.420994   351A      3.424052  
     352A      3.430338   353A      3.444210   354A      3.449153  
     355A      3.451979   356A      3.461818   357A      3.465226  
     358A      3.481244   359A      3.496889   360A      3.502233  
     361A      3.516610   362A      3.524308   363A      3.530598  
     364A      3.544605   365A      3.547671   366A      3.552101  
     367A      3.568942   368A      3.580020   369A      3.585620  
     370A      3.598354   371A      3.612053   372A      3.612513  
     373A      3.617543   374A      3.635074   375A      3.646236  
     376A      3.651495   377A      3.661385   378A      3.664982  
     379A      3.676719   380A      3.685329   381A      3.685864  
     382A      3.700355   383A      3.708204   384A      3.722652  
     385A      3.732058   386A      3.735164   387A      3.751844  
     388A      3.764292   389A      3.772696   390A      3.781504  
     391A      3.801805   392A      3.810481   393A      3.822973  
     394A      3.836253   395A      3.843435   396A      3.865272  
     397A      3.875119   398A      3.889710   399A      3.893158  
     400A      3.897765   401A      3.902874   402A      3.924256  
     403A      3.931566   404A      3.941555   405A      3.949991  
     406A      3.979648   407A      3.982516   408A      3.991126  
     409A      3.998553   410A      4.006045   411A      4.031656  
     412A      4.039141   413A      4.052178   414A      4.059138  
     415A      4.068693   416A      4.072592   417A      4.085710  
     418A      4.087957   419A      4.096763   420A      4.112978  
     421A      4.122276   422A      4.129713   423A      4.134931  
     424A      4.136745   425A      4.146771   426A      4.153539  
     427A      4.176075   428A      4.183751   429A      4.188292  
     430A      4.197809   431A      4.211213   432A      4.221115  
     433A      4.230703   434A      4.246263   435A      4.271275  
     436A      4.273566   437A      4.281975   438A      4.292512  
     439A      4.298988   440A      4.307423   441A      4.314475  
     442A      4.320300   443A      4.340276   444A      4.346583  
     445A      4.366711   446A      4.375680   447A      4.383209  
     448A      4.386447   449A      4.407422   450A      4.410202  
     451A      4.422522   452A      4.431837   453A      4.443485  
     454A      4.449303   455A      4.455481   456A      4.468951  
     457A      4.478796   458A      4.490105   459A      4.506923  
     460A      4.513673   461A      4.528216   462A      4.536215  
     463A      4.551620   464A      4.557524   465A      4.567110  
     466A      4.585401   467A      4.591673   468A      4.601931  
     469A      4.616202   470A      4.617144   471A      4.621464  
     472A      4.632669   473A      4.634759   474A      4.650460  
     475A      4.658019   476A      4.665608   477A      4.676209  
     478A      4.679663   479A      4.708596   480A      4.712875  
     481A      4.714770   482A      4.732010   483A      4.747969  
     484A      4.754600   485A      4.782157   486A      4.794636  
     487A      4.805874   488A      4.827662   489A      4.841584  
     490A      4.864684   491A      4.882981   492A      4.922623  
     493A      4.940750   494A      4.951535   495A      4.956988  
     496A      5.018100   497A      5.020624   498A      5.024920  
     499A      5.051182   500A      5.061937   501A      5.075099  
     502A      5.081504   503A      5.087749   504A      5.104869  
     505A      5.133630   506A      5.143087   507A      5.160683  
     508A      5.183112   509A      5.203016   510A      5.222937  
     511A      5.245023   512A      5.259091   513A      5.287532  
     514A      5.291352   515A      5.302171   516A      5.328935  
     517A      5.336231   518A      5.347716   519A      5.355307  
     520A      5.368233   521A      5.392748   522A      5.407057  
     523A      5.433214   524A      5.442328   525A      5.453759  
     526A      5.467433   527A      5.479081   528A      5.501751  
     529A      5.518967   530A      5.541474   531A      5.566940  
     532A      5.578232   533A      5.600937   534A      5.611893  
     535A      5.627415   536A      5.651628   537A      5.663314  
     538A      5.688173   539A      5.714577   540A      5.776170  
     541A      5.791391   542A      5.804558   543A      5.820885  
     544A      5.831658   545A      5.863597   546A      5.874776  
     547A      5.906272   548A      5.972305   549A      6.001256  
     550A      6.038762   551A      6.089834   552A      6.165386  
     553A      6.201615   554A      6.215708   555A      6.248219  
     556A      6.319017   557A      6.357793   558A      6.362686  
     559A      6.382228   560A      6.428157   561A      6.452298  
     562A      6.518044   563A      6.690287   564A      6.982665  
     565A      9.068902   566A     11.977693   567A     12.315420  
     568A     12.448175   569A     12.681752   570A     13.113336  
     571A     13.216870   572A     13.364885   573A     13.731186  
     574A     13.817263   575A     13.931246   576A     15.766375  

    Final Occupation by Irrep:
              A 
    DOCC [    51 ]

  @DF-RHF Final Energy:  -921.61796842801732

   => Energetics <=

    Nuclear Repulsion Energy =            828.4977591942139270
    One-Electron Energy =               -2905.4863586065603158
    Two-Electron Energy =                1155.3706309843291820
    Total Energy =                       -921.6179684280173205

Computation Completed


Properties will be evaluated at   0.000000,   0.000000,   0.000000 [a0]

Properties computed using the SCF density matrix

  Nuclear Dipole Moment: [e a0]
     X:    25.4027      Y:     5.7647      Z:    -5.5123

  Electronic Dipole Moment: [e a0]
     X:   -24.5140      Y:    -5.5578      Z:     5.2795

  Dipole Moment: [e a0]
     X:     0.8887      Y:     0.2070      Z:    -0.2328     Total:     0.9417

  Dipole Moment: [D]
     X:     2.2588      Y:     0.5260      Z:    -0.5917     Total:     2.3935


*** tstop() called on skystd28.palmetto.clemson.edu at Thu Nov 25 23:45:23 2021
Module time:
	user time   =     105.17 seconds =       1.75 minutes
	system time =       9.84 seconds =       0.16 minutes
	total time  =        115 seconds =       1.92 minutes
Total time:
	user time   =     105.17 seconds =       1.75 minutes
	system time =       9.84 seconds =       0.16 minutes
	total time  =        115 seconds =       1.92 minutes

*** tstart() called on skystd28.palmetto.clemson.edu
*** at Thu Nov 25 23:45:23 2021


  //>>>>>>>>>>>>>>>>>>>>>>>>>>>>>>>>>>>//
  //               DFMP2               //
  //<<<<<<<<<<<<<<<<<<<<<<<<<<<<<<<<<<<//

   => Loading Basis Set <=

    Name: (CC-PVTZ AUX)
    Role: RIFIT
    Keyword: DF_BASIS_MP2
    atoms 1-12         entry C          line   209 file /home/maxbuskirk/.conda/envs/psifour/share/psi4/basis/cc-pvtz-ri.gbs 
    atoms 13-14, 16-26 entry H          line    19 file /home/maxbuskirk/.conda/envs/psifour/share/psi4/basis/cc-pvtz-ri.gbs 
    atoms 15           entry CL         line   845 file /home/maxbuskirk/.conda/envs/psifour/share/psi4/basis/cc-pvtz-ri.gbs 

	 --------------------------------------------------------
	                          DF-MP2                         
	      2nd-Order Density-Fitted Moller-Plesset Theory     
	              RMP2 Wavefunction,   1 Threads             
	                                                         
	        Rob Parrish, Justin Turney, Andy Simmonett,      
	           Ed Hohenstein, and C. David Sherrill          
	 --------------------------------------------------------

   => Auxiliary Basis Set <=

  Basis Set: (CC-PVTZ AUX)
    Blend: CC-PVTZ-RI
    Number of shells: 438
    Number of basis functions: 1484
    Number of Cartesian functions: 1823
    Spherical Harmonics?: true
    Max angular momentum: 4

	 --------------------------------------------------------
	                 NBF =   576, NAUX =  1484
	 --------------------------------------------------------
	   CLASS    FOCC     OCC    AOCC    AVIR     VIR    FVIR
	   PAIRS       0      51      51     525     525       0
	 --------------------------------------------------------


         ------------------------------------------------------------
                                     CPHF                           
                                  Rob Parrish                       
         ------------------------------------------------------------

  ==> Geometry <==

    Molecular point group: c1
    Full point group: C1

    Geometry (in Angstrom), charge = 0, multiplicity = 1:

       Center              X                  Y                   Z               Mass       
    ------------   -----------------  -----------------  -----------------  -----------------
         C            1.939706593143     0.760367789201    -2.139451782716    12.000000000000
         C            1.584576593143     0.649146789201    -0.672039782716    12.000000000000
         C            2.412676593143     1.531051789201     0.281495217284    12.000000000000
         C            3.676131593143     0.700956789201     0.582884217284    12.000000000000
         C            3.955529593143    -0.073846210799    -0.721402782716    12.000000000000
         C            2.568132593143    -0.339199210799    -1.305549782716    12.000000000000
         C            0.211000593143     0.235925789201    -0.257591782716    12.000000000000
         C            0.041784593143    -0.672420210799     0.808505217284    12.000000000000
         C           -1.240482406857    -1.043187210799     1.239830217284    12.000000000000
         C           -2.377096406857    -0.510152210799     0.607873217284    12.000000000000
         C           -2.221076406857     0.395210789201    -0.453820782716    12.000000000000
         C           -0.935259406857     0.766538789201    -0.880046782716    12.000000000000
         H           -0.813855406857     1.478444789201    -1.702850782716     1.007825032230
         H           -3.101842406857     0.814869789201    -0.949700782716     1.007825032230
         CL          -3.968977406857    -0.973551210799     1.135865217284    34.968852682000
         H           -1.354604406857    -1.753348210799     2.064690217284     1.007825032230
         H            0.927876593143    -1.097831210799     1.292430217284     1.007825032230
         H            2.244013593143    -1.365914210799    -1.500035782716     1.007825032230
         H            1.178836593143     0.460978789201    -2.865804782716     1.007825032230
         H            2.581022593143     1.592422789201    -2.449261782716     1.007825032230
         H            4.506365593143    -1.010037210799    -0.537940782716     1.007825032230
         H            4.564259593143     0.533810789201    -1.414819782716     1.007825032230
         H            3.441064593143    -0.023804210799     1.382586217284     1.007825032230
         H            4.530120593143     1.310378789201     0.924073217284     1.007825032230
         H            1.841207593143     1.771679789201     1.191828217284     1.007825032230
         H            2.676923593143     2.486917789201    -0.205980782716     1.007825032230

  Nuclear repulsion =  828.497759194213927
  Reference energy  = -921.617968428017321

  ==> Basis Set <==

  Basis Set: CC-PVTZ
    Blend: CC-PVTZ
    Number of shells: 210
    Number of basis functions: 576
    Number of Cartesian functions: 654
    Spherical Harmonics?: true
    Max angular momentum: 3

  ==> CGRSolver (by Rob Parrish) <==

   Number of roots    =         1
   Preconditioning    =    JACOBI
   Convergence cutoff =     1E-06
   Maximum iterations =       100

  ==> CPHFRHamiltonian (by Rob Parrish) <== 

  ==> DiskDFJK: Density-Fitted J/K Matrices <==

    J tasked:                  Yes
    K tasked:                  Yes
    wK tasked:                  No
    OpenMP threads:              1
    Integrals threads:           1
    Memory [MiB]:              375
    Algorithm:                Disk
    Integral Cache:           NONE
    Schwarz Cutoff:          1E-12
    Fitting Condition:       1E-10

   => Auxiliary Basis Set <=

  Basis Set: (CC-PVTZ AUX)
    Blend: CC-PVTZ-JKFIT
    Number of shells: 467
    Number of basis functions: 1459
    Number of Cartesian functions: 1752
    Spherical Harmonics?: true
    Max angular momentum: 4

  ==> CPHF Iterations <==

  => Iterations <=

             Iter  Converged  Remaining    Residual
  CGR           1          0          1   8.595E-02
  CGR           2          0          1   1.723E-02
  CGR           3          0          1   7.827E-03
  CGR           4          0          1   4.118E-03
  CGR           5          0          1   1.929E-03
  CGR           6          0          1   9.266E-04
  CGR           7          0          1   3.307E-04
  CGR           8          0          1   1.007E-04
  CGR           9          0          1   3.614E-05
  CGR          10          0          1   1.192E-05
  CGR          11          0          1   3.854E-06
  CGR          12          0          1   1.548E-06
  CGR          13          1          0   7.576E-07

    CGRSolver converged.

  ==> DFCorrGrad: Density-Fitted Correlated Gradients <==

    OpenMP threads:              1
    Integrals threads:           1
    Memory [GiB]:            0.366
    Schwarz Cutoff:          0E+00
    Fitting Condition:       1E-10

   => Auxiliary Basis Set <=

  Basis Set: (CC-PVTZ AUX)
    Blend: CC-PVTZ-JKFIT
    Number of shells: 467
    Number of basis functions: 1459
    Number of Cartesian functions: 1752
    Spherical Harmonics?: true
    Max angular momentum: 4

	-----------------------------------------------------------
	 ==================> DF-MP2 Energies <==================== 
	-----------------------------------------------------------
	 Reference Energy          =    -921.6179684280173205 [Eh]
	 Singles Energy            =      -0.0000000000000000 [Eh]
	 Same-Spin Energy          =      -0.5772359734980257 [Eh]
	 Opposite-Spin Energy      =      -1.7902524043505066 [Eh]
	 Correlation Energy        =      -2.3674883778485323 [Eh]
	 Total Energy              =    -923.9854568058658515 [Eh]
	-----------------------------------------------------------
	 ================> DF-SCS-MP2 Energies <================== 
	-----------------------------------------------------------
	 SCS Same-Spin Scale       =       0.3333333333333333 [-]
	 SCS Opposite-Spin Scale   =       1.2000000000000000 [-]
	 SCS Same-Spin Energy      =      -0.1924119911660085 [Eh]
	 SCS Opposite-Spin Energy  =      -2.1483028852206076 [Eh]
	 SCS Correlation Energy    =      -2.3407148763866163 [Eh]
	 SCS Total Energy          =    -923.9586833044039622 [Eh]
	-----------------------------------------------------------


  -Total Gradient:
     Atom            X                  Y                   Z
    ------   -----------------  -----------------  -----------------
       1        0.000368584546     0.000454039946    -0.002591778482
       2       -0.001456909593     0.003546608084     0.003312634121
       3        0.001591205490    -0.002382751397    -0.000322390009
       4       -0.001355131328     0.000441764729    -0.002826881670
       5       -0.002232001961     0.001191824869     0.001619885750
       6        0.004672043573    -0.001761665608    -0.000815767120
       7        0.001628580763    -0.000144399911    -0.001038800335
       8        0.006242007258    -0.003913254089     0.004745545944
       9       -0.000688168642     0.000970061206    -0.000959539689
      10       -0.015334635904    -0.004529030324     0.005259022688
      11        0.000671106043    -0.000869070259     0.000947717355
      12       -0.000483672706     0.005873919647    -0.006548177353
      13        0.002125172691     0.007710965847    -0.008786910423
      14       -0.009226232064     0.005529962135    -0.006521521779
      15       -0.007177129409    -0.002050180546     0.002329694078
      16        0.000104817149    -0.008166322357     0.009506755935
      17        0.010072110081    -0.004161593467     0.004640261327
      18       -0.003399213951    -0.010782242097    -0.001925144120
      19       -0.007674862046    -0.002802934891    -0.007437566661
      20        0.006253397772     0.008399875695    -0.003498619213
      21        0.005527404039    -0.009024700298     0.001577965397
      22        0.006075696659     0.005393673249    -0.006450988905
      23       -0.001879135268    -0.006664890060     0.007879383607
      24        0.008525787788     0.005949993212     0.003492777409
      25       -0.005352319693     0.002595343863     0.008541216961
      26        0.002401498587     0.009195002786    -0.004128774753


*** tstop() called on skystd28.palmetto.clemson.edu at Thu Nov 25 23:53:32 2021
Module time:
	user time   =     474.22 seconds =       7.90 minutes
	system time =      13.97 seconds =       0.23 minutes
	total time  =        489 seconds =       8.15 minutes
Total time:
	user time   =     579.39 seconds =       9.66 minutes
	system time =      23.81 seconds =       0.40 minutes
	total time  =        604 seconds =      10.07 minutes

			-----------------------------------------
			 OPTKING 2.0: for geometry optimizations 
			  - R.A. King,  Bethel University        
			-----------------------------------------

	Internal coordinates to be generated automatically.
	Detected frag 1 with atoms:  1 2 3 4 5 6 7 8 9 10 11 12 13 14 15 16 17 18 19 20
	 21 22 23 24 25 26
	---Fragment 1 Bond Connectivity---
	 1 : 2 6 19 20
	 2 : 1 3 6 7
	 3 : 2 4 25 26
	 4 : 3 5 23 24
	 5 : 4 6 21 22
	 6 : 1 2 5 18
	 7 : 2 8 12
	 8 : 7 9 17
	 9 : 8 10 16
	 10 : 9 11 15
	 11 : 10 12 14
	 12 : 7 11 13
	 13 : 12
	 14 : 11
	 15 : 10
	 16 : 9
	 17 : 8
	 18 : 6
	 19 : 1
	 20 : 1
	 21 : 5
	 22 : 5
	 23 : 4
	 24 : 4
	 25 : 3
	 26 : 3

	---Fragment 1 Geometry and Gradient---
	 C           3.6655142248        1.4368868762       -4.0429779280
	 C           2.9944157859        1.2267096468       -1.2699711347
	 C           4.5592979903        2.8932685655        0.5319488663
	 C           6.9468819122        1.3246163574        1.1014915335
	 C           7.4748676122       -0.1395491138       -1.3632536855
	 C           4.8530672549       -0.6409936104       -2.4671315325
	 C           0.3987333333        0.4458351275       -0.4867779215
	 C           0.0789614373       -1.2706900396        1.5278534317
	 C          -2.3441720124       -1.9713381260        2.3429395527
	 C          -4.4920611828       -0.9640479607        1.1487138997
	 C          -4.1972261127        0.7468401534       -0.8575969894
	 C          -1.7673841352        1.4485483761       -1.6630473969
	 H          -1.5379638247        2.7938557432       -3.2179216119
	 H          -5.8616326333        1.5398807295       -1.7946743805
	 CL         -7.5002802971       -1.8397451575        2.1464741761
	 H          -2.5598313373       -3.3133479210        3.9016990446
	 H           1.7534326393       -2.0746003204        2.4423391469
	 H           4.2405711128       -2.5812037693       -2.8346568077
	 H           2.2276783077        0.8711236612       -5.4155861684
	 H           4.8774258247        3.0092429475       -4.6284339789
	 H           8.5157967922       -1.9086937049       -1.0165607510
	 H           8.6252005965        1.0087561944       -2.6736219062
	 H           6.5026696611       -0.0449834390        2.6127092955
	 H           8.5606872363        2.4762570322        1.7462453005
	 H           3.4793780912        3.3479895836        2.2522289193
	 H           5.0586524498        4.6995935181       -0.3892472664
	             0.0003685845        0.0004540399       -0.0025917785
	            -0.0014569096        0.0035466081        0.0033126341
	             0.0015912055       -0.0023827514       -0.0003223900
	            -0.0013551313        0.0004417647       -0.0028268817
	            -0.0022320020        0.0011918249        0.0016198857
	             0.0046720436       -0.0017616656       -0.0008157671
	             0.0016285808       -0.0001443999       -0.0010388003
	             0.0062420073       -0.0039132541        0.0047455459
	            -0.0006881686        0.0009700612       -0.0009595397
	            -0.0153346359       -0.0045290303        0.0052590227
	             0.0006711060       -0.0008690703        0.0009477174
	            -0.0004836727        0.0058739196       -0.0065481774
	             0.0021251727        0.0077109658       -0.0087869104
	            -0.0092262321        0.0055299621       -0.0065215218
	            -0.0071771294       -0.0020501805        0.0023296941
	             0.0001048171       -0.0081663224        0.0095067559
	             0.0100721101       -0.0041615935        0.0046402613
	            -0.0033992140       -0.0107822421       -0.0019251441
	            -0.0076748620       -0.0028029349       -0.0074375667
	             0.0062533978        0.0083998757       -0.0034986192
	             0.0055274040       -0.0090247003        0.0015779654
	             0.0060756967        0.0053936732       -0.0064509889
	            -0.0018791353       -0.0066648901        0.0078793836
	             0.0085257878        0.0059499932        0.0034927774
	            -0.0053523197        0.0025953439        0.0085412170
	             0.0024014986        0.0091950028       -0.0041287748

	Previous optimization step data not found.  Starting new optimization.

	---Fragment 1 Intrafragment Coordinates---
	 - Coordinate -           - BOHR/RAD -       - ANG/DEG -
	 R(1,2)           =         2.860789	       1.513864
	 R(1,6)           =         2.865512	       1.516364
	 R(1,19)          =         2.066764	       1.093684
	 R(1,20)          =         2.069732	       1.095255
	 R(2,3)           =         2.910875	       1.540368
	 R(2,6)           =         2.894148	       1.531517
	 R(2,7)           =         2.821476	       1.493061
	 R(3,4)           =         2.913006	       1.541497
	 R(3,25)          =         2.081433	       1.101447
	 R(3,26)          =         2.088245	       1.105052
	 R(4,5)           =         2.915050	       1.542578
	 R(4,23)          =         2.087321	       1.104562
	 R(4,24)          =         2.084790	       1.103224
	 R(5,6)           =         2.888569	       1.528565
	 R(5,21)          =         2.081731	       1.101604
	 R(5,22)          =         2.087806	       1.104820
	 R(6,18)          =         2.067521	       1.094085
	 R(7,8)           =         2.665981	       1.410776
	 R(7,12)          =         2.661035	       1.408159
	 R(8,9)           =         2.650820	       1.402754
	 R(8,17)          =         2.070365	       1.095590
	 R(9,10)          =         2.655981	       1.405485
	 R(9,16)          =         2.068147	       1.094416
	 R(10,11)         =         2.653177	       1.404001
	 R(10,15)         =         3.288123	       1.740000
	 R(11,12)         =         2.654294	       1.404592
	 R(11,14)         =         2.068158	       1.094422
	 R(12,13)         =         2.068845	       1.094786
	 B(1,2,3)         =         2.017351	     115.585685
	 B(1,2,6)         =         1.042344	      59.721936
	 B(1,2,7)         =         2.100422	     120.345328
	 B(1,6,2)         =         1.039528	      59.560564
	 B(1,6,5)         =         2.049282	     117.415187
	 B(1,6,18)        =         2.048738	     117.384025
	 B(2,1,6)         =         1.059720	      60.717500
	 B(2,1,19)        =         2.049292	     117.415782
	 B(2,1,20)        =         2.057096	     117.862942
	 B(2,3,4)         =         1.826944	     104.676198
	 B(2,3,25)        =         1.936680	     110.963570
	 B(2,3,26)        =         1.929130	     110.530986
	 B(2,6,5)         =         1.888930	     108.227717
	 B(2,6,18)        =         2.081600	     119.266883
	 B(2,7,8)         =         2.092441	     119.888038
	 B(2,7,12)        =         2.119852	     121.458574
	 B(3,2,6)         =         1.854886	     106.277162
	 B(3,2,7)         =         2.072817	     118.763664
	 B(3,4,5)         =         1.827213	     104.691617
	 B(3,4,23)        =         1.897014	     108.690913
	 B(3,4,24)        =         1.979545	     113.419580
	 B(4,3,25)        =         1.962002	     112.414409
	 B(4,3,26)        =         1.934839	     110.858094
	 B(4,5,6)         =         1.819262	     104.236043
	 B(4,5,21)        =         1.956931	     112.123910
	 B(4,5,22)        =         1.932871	     110.745342
	 B(5,4,23)        =         1.897723	     108.731493
	 B(5,4,24)        =         1.980944	     113.499740
	 B(5,6,18)        =         2.094079	     119.981893
	 B(6,1,19)        =         2.043221	     117.067911
	 B(6,1,20)        =         2.053042	     117.630648
	 B(6,2,7)         =         2.125903	     121.805252
	 B(6,5,21)        =         1.949769	     111.713517
	 B(6,5,22)        =         1.934481	     110.837597
	 B(7,8,9)         =         2.108523	     120.809467
	 B(7,8,17)        =         2.079202	     119.129487
	 B(7,12,11)       =         2.107639	     120.758819
	 B(7,12,13)       =         2.079425	     119.142292
	 B(8,7,12)        =         2.070330	     118.621159
	 B(8,9,10)        =         2.095249	     120.048921
	 B(8,9,16)        =         2.092759	     119.906259
	 B(9,8,17)        =         2.095393	     120.057181
	 B(9,10,11)       =         2.088291	     119.650243
	 B(9,10,15)       =         2.097186	     120.159919
	 B(10,9,16)       =         2.095155	     120.043517
	 B(10,11,12)      =         2.096327	     120.110679
	 B(10,11,14)      =         2.094932	     120.030779
	 B(11,10,15)      =         2.097704	     120.189614
	 B(11,12,13)      =         2.096116	     120.098614
	 B(12,11,14)      =         2.091924	     119.858405
	 B(19,1,20)       =         2.012474	     115.306264
	 B(21,5,22)       =         1.871758	     107.243849
	 B(23,4,24)       =         1.878938	     107.655190
	 B(25,3,26)       =         1.875161	     107.438837
	 D(1,2,3,4)       =        -1.487484	     -85.226572
	 D(1,2,3,25)      =         2.675187	     153.276932
	 D(1,2,3,26)      =         0.596675	      34.186976
	 D(1,2,6,5)       =         1.948453	     111.638142
	 D(1,2,6,18)      =        -1.856921	    -106.393716
	 D(1,2,7,8)       =         2.408854	     138.017151
	 D(1,2,7,12)      =        -0.769280	     -44.076485
	 D(1,6,2,3)       =        -1.928884	    -110.516925
	 D(1,6,2,7)       =         1.903190	     109.044759
	 D(1,6,5,4)       =         1.468895	      84.161501
	 D(1,6,5,21)      =        -2.697521	    -154.556588
	 D(1,6,5,22)      =        -0.611214	     -35.019998
	 D(2,1,6,5)       =        -1.674893	     -95.964306
	 D(2,1,6,18)      =         1.911561	     109.524357
	 D(2,3,4,5)       =         0.589407	      33.770540
	 D(2,3,4,23)      =        -1.436065	     -82.280465
	 D(2,3,4,24)      =         2.757968	     158.019943
	 D(2,6,1,19)      =        -1.882068	    -107.834530
	 D(2,6,1,20)      =         1.887309	     108.134828
	 D(2,6,5,4)       =         0.342659	      19.632931
	 D(2,6,5,21)      =         2.459428	     140.914841
	 D(2,6,5,22)      =        -1.737450	     -99.548568
	 D(2,7,8,9)       =         3.108309	     178.092997
	 D(2,7,8,17)      =        -0.045760	      -2.621861
	 D(2,7,12,11)     =        -3.110817	    -178.236678
	 D(2,7,12,13)     =         0.027453	       1.572949
	 D(3,2,1,6)       =         1.651177	      94.605460
	 D(3,2,1,19)      =        -2.759824	    -158.126276
	 D(3,2,1,20)      =        -0.229547	     -13.152074
	 D(3,2,6,5)       =         0.019569	       1.121217
	 D(3,2,6,18)      =         2.497380	     143.089359
	 D(3,2,7,8)       =        -1.201325	     -68.830845
	 D(3,2,7,12)      =         1.903727	     109.075519
	 D(3,4,5,6)       =        -0.573602	     -32.864999
	 D(3,4,5,21)      =        -2.685602	    -153.873654
	 D(3,4,5,22)      =         1.507600	      86.379143
	 D(4,3,2,6)       =        -0.375127	     -21.493186
	 D(4,3,2,7)       =         2.100956	     120.375901
	 D(4,5,6,18)      =        -2.129570	    -122.015351
	 D(5,4,3,25)      =         2.693170	     154.307289
	 D(5,4,3,26)      =        -1.490910	     -85.422842
	 D(5,6,1,19)      =         2.726225	     156.201164
	 D(5,6,1,20)      =         0.212416	      12.170522
	 D(5,6,2,7)       =        -2.431542	    -139.317099
	 D(6,1,2,7)       =        -1.944837	    -111.430967
	 D(6,2,1,19)      =         1.872184	     107.268264
	 D(6,2,1,20)      =        -1.880724	    -107.757534
	 D(6,2,3,25)      =        -2.495641	    -142.989682
	 D(6,2,3,26)      =         1.709033	      97.920361
	 D(6,2,7,8)       =         1.168456	      66.947624
	 D(6,2,7,12)      =        -2.009677	    -115.146011
	 D(6,5,4,23)      =         1.451379	      83.157872
	 D(6,5,4,24)      =        -2.741271	    -157.063259
	 D(7,2,1,19)      =        -0.072653	      -4.162703
	 D(7,2,1,20)      =         2.457624	     140.811498
	 D(7,2,3,25)      =        -0.019558	      -1.120595
	 D(7,2,3,26)      =        -2.098070	    -120.210552
	 D(7,2,6,18)      =         0.046269	       2.651043
	 D(7,8,9,10)      =         0.001304	       0.074700
	 D(7,8,9,16)      =         3.135653	     179.659684
	 D(7,12,11,10)    =         0.004887	       0.280010
	 D(7,12,11,14)    =        -3.139052	    -179.854428
	 D(8,7,12,11)     =        -0.005315	      -0.304531
	 D(8,7,12,13)     =         3.132955	     179.505096
	 D(8,9,10,11)     =        -0.001796	      -0.102888
	 D(8,9,10,15)     =         3.136800	     179.725376
	 D(9,8,7,12)      =         0.002225	       0.127485
	 D(9,10,11,12)    =        -0.001268	      -0.072650
	 D(9,10,11,14)    =        -3.140510	    -179.937978
	 D(10,9,8,17)     =        -3.127697	    -179.203838
	 D(10,11,12,13)   =        -3.133351	    -179.527802
	 D(11,10,9,16)    =        -3.136135	    -179.687298
	 D(12,7,8,17)     =         3.131341	     179.412627
	 D(12,11,10,15)   =        -3.139862	    -179.900862
	 D(13,12,11,14)   =         0.005895	       0.337760
	 D(14,11,10,15)   =         0.004081	       0.233810
	 D(15,10,9,16)    =         0.002460	       0.140965
	 D(16,9,8,17)     =         0.006652	       0.381147
	 D(18,6,1,19)     =         0.029493	       1.689827
	 D(18,6,1,20)     =        -2.484316	    -142.340815
	 D(18,6,5,21)     =        -0.012801	      -0.733441
	 D(18,6,5,22)     =         2.073506	     118.803150
	 D(21,5,4,23)     =        -0.660621	     -37.850783
	 D(21,5,4,24)     =         1.429915	      81.928087
	 D(22,5,4,23)     =        -2.750604	    -157.597986
	 D(22,5,4,24)     =        -0.660068	     -37.819116
	 D(23,4,3,25)     =         0.667698	      38.256283
	 D(23,4,3,26)     =         2.766803	     158.526152
	 D(24,4,3,25)     =        -1.421454	     -81.443309
	 D(24,4,3,26)     =         0.677651	      38.826560

	Current energy   :      -923.9854568059

	Generating empirical Hessian (Schlegel '84) for each fragment.
	Taking RFO optimization step.
	Going to follow RFO solution 1.
	Using RFO vector 1.
	Norm of target step-size    0.17906
	Projected energy change by RFO approximation:        -0.0111581694

	Back-transformation to cartesian coordinates...
	Could not converge backtransformation.
	Using first guess instead.

	--- Internal Coordinate Step in ANG or DEG, aJ/ANG or AJ/DEG ---
	 ---------------------------------------------------------------------------
	   Coordinate                Previous        Force       Change         New 
	   ----------                --------       ------       ------       ------
	    1 R(1,2)          =      1.513864    -0.074453    -0.015402     1.498462
	    2 R(1,6)          =      1.516364    -0.068696    -0.013320     1.503044
	    3 R(1,19)         =      1.093684    -0.091006    -0.016450     1.077235
	    4 R(1,20)         =      1.095255    -0.090894    -0.016505     1.078750
	    5 R(2,3)          =      1.540368    -0.076843    -0.016829     1.523539
	    6 R(2,6)          =      1.531517    -0.070431    -0.015252     1.516265
	    7 R(2,7)          =      1.493061    -0.108175    -0.020287     1.472773
	    8 R(3,4)          =      1.541497    -0.067044    -0.014312     1.527184
	    9 R(3,25)         =      1.101447    -0.085709    -0.015882     1.085565
	   10 R(3,26)         =      1.105052    -0.085265    -0.015984     1.089068
	   11 R(4,5)          =      1.542578    -0.067355    -0.014332     1.528246
	   12 R(4,23)         =      1.104562    -0.086323    -0.016139     1.088424
	   13 R(4,24)         =      1.103224    -0.090351    -0.016835     1.086388
	   14 R(5,6)          =      1.528565    -0.073231    -0.015388     1.513176
	   15 R(5,21)         =      1.101604    -0.088123    -0.016337     1.085267
	   16 R(5,22)         =      1.104820    -0.085377    -0.015986     1.088834
	   17 R(6,18)         =      1.094085    -0.094478    -0.017094     1.076991
	   18 R(7,8)          =      1.410776    -0.133691    -0.019069     1.391707
	   19 R(7,12)         =      1.408159    -0.134986    -0.019058     1.389101
	   20 R(8,9)          =      1.402754    -0.143037    -0.019827     1.382927
	   21 R(8,17)         =      1.095590    -0.097313    -0.017672     1.077918
	   22 R(9,10)         =      1.405485    -0.146796    -0.020473     1.385012
	   23 R(9,16)         =      1.094416    -0.102600    -0.018520     1.075896
	   24 R(10,11)        =      1.404001    -0.147537    -0.020469     1.383531
	   25 R(10,15)        =      1.740000    -0.064419    -0.012688     1.727312
	   26 R(11,12)        =      1.404592    -0.141834    -0.019790     1.384802
	   27 R(11,14)        =      1.094422    -0.102988    -0.018574     1.075848
	   28 R(12,13)        =      1.094786    -0.097660    -0.017687     1.077098
	   29 B(1,2,3)        =    115.585685     0.000005    -0.057149   115.528536
	   30 B(1,2,6)        =     59.721936     0.000013     0.085097    59.807033
	   31 B(1,2,7)        =    120.345328    -0.000003     0.023648   120.368976
	   32 B(1,6,2)        =     59.560564    -0.000020    -0.052377    59.508187
	   33 B(1,6,5)        =    117.415187    -0.000003    -0.099487   117.315700
	   34 B(1,6,18)       =    117.384025     0.000006     0.002697   117.386722
	   35 B(2,1,6)        =     60.717500     0.000007    -0.032720    60.684780
	   36 B(2,1,19)       =    117.415782    -0.000007     0.028936   117.444718
	   37 B(2,1,20)       =    117.862942    -0.000010    -0.098142   117.764800
	   38 B(2,3,4)        =    104.676198    -0.000006    -0.093166   104.583032
	   39 B(2,3,25)       =    110.963570    -0.000002    -0.037798   110.925772
	   40 B(2,3,26)       =    110.530986    -0.000011    -0.095466   110.435520
	   41 B(2,6,5)        =    108.227717     0.000009    -0.002987   108.224731
	   42 B(2,6,18)       =    119.266883     0.000005     0.055474   119.322358
	   43 B(2,7,8)        =    119.888038     0.000032     0.088298   119.976336
	   44 B(2,7,12)       =    121.458574     0.000045     0.124980   121.583554
	   45 B(3,2,6)        =    106.277162     0.000016     0.100637   106.377800
	   46 B(3,2,7)        =    118.763664    -0.000008    -0.030792   118.732871
	   47 B(3,4,5)        =    104.691617    -0.000005     0.022130   104.713747
	   48 B(3,4,23)       =    108.690913    -0.000003    -0.075672   108.615241
	   49 B(3,4,24)       =    113.419580    -0.000003    -0.023526   113.396054
	   50 B(4,3,25)       =    112.414409    -0.000003    -0.016776   112.397634
	   51 B(4,3,26)       =    110.858094     0.000005     0.024736   110.882830
	   52 B(4,5,6)        =    104.236043    -0.000015    -0.089582   104.146461
	   53 B(4,5,21)       =    112.123910     0.000002    -0.008400   112.115510
	   54 B(4,5,22)       =    110.745342    -0.000000    -0.037405   110.707937
	   55 B(5,4,23)       =    108.731493    -0.000009    -0.109913   108.621580
	   56 B(5,4,24)       =    113.499740     0.000005     0.019965   113.519705
	   57 B(5,6,18)       =    119.981893    -0.000004     0.057895   120.039788
	   58 B(6,1,19)       =    117.067911    -0.000014    -0.061097   117.006814
	   59 B(6,1,20)       =    117.630648    -0.000005    -0.067674   117.562974
	   60 B(6,2,7)        =    121.805252    -0.000011    -0.049259   121.755993
	   61 B(6,5,21)       =    111.713517     0.000003     0.005918   111.719435
	   62 B(6,5,22)       =    110.837597    -0.000004    -0.075261   110.762336
	   63 B(7,8,9)        =    120.809467     0.000106     0.365467   121.174934
	   64 B(7,8,17)       =    119.129487     0.000017     0.128800   119.258287
	   65 B(7,12,11)      =    120.758819     0.000106     0.366911   121.125730
	   66 B(7,12,13)      =    119.142292     0.000011     0.104867   119.247160
	   67 B(8,7,12)       =    118.621159    -0.000076    -0.207970   118.413189
	   68 B(8,9,10)       =    120.048921    -0.000243    -0.783902   119.265019
	   69 B(8,9,16)       =    119.906259     0.000233     0.887721   120.793980
	   70 B(9,8,17)       =    120.057181    -0.000123    -0.493763   119.563418
	   71 B(9,10,11)      =    119.650243     0.000351     1.047636   120.697880
	   72 B(9,10,15)      =    120.159919    -0.000183    -0.544666   119.615252
	   73 B(10,9,16)      =    120.043517     0.000011    -0.103766   119.939750
	   74 B(10,11,12)     =    120.110679    -0.000244    -0.787862   119.322817
	   75 B(10,11,14)     =    120.030779     0.000012    -0.099765   119.931013
	   76 B(11,10,15)     =    120.189614    -0.000168    -0.503022   119.686592
	   77 B(11,12,13)     =    120.098614    -0.000117    -0.471632   119.626982
	   78 B(12,11,14)     =    119.858405     0.000233     0.887700   120.746105
	   79 B(19,1,20)      =    115.306264     0.000019     0.132157   115.438421
	   80 B(21,5,22)      =    107.243849     0.000013     0.191921   107.435770
	   81 B(23,4,24)      =    107.655190     0.000013     0.151358   107.806548
	   82 B(25,3,26)      =    107.438837     0.000016     0.205291   107.644129
	   83 D(1,2,3,4)      =    -85.226572    -0.000003    -0.165183   -85.391755
	   84 D(1,2,3,25)     =    153.276932    -0.000001    -0.067980   153.208952
	   85 D(1,2,3,26)     =     34.186976    -0.000004    -0.238221    33.948755
	   86 D(1,2,6,5)      =    111.638142    -0.000002    -0.120916   111.517226
	   87 D(1,2,6,18)     =   -106.393716     0.000001     0.043123  -106.350593
	   88 D(1,2,7,8)      =    138.017151     0.000004     0.573438   138.590590
	   89 D(1,2,7,12)     =    -44.076485     0.000005     0.749567   -43.326918
	   90 D(1,6,2,3)      =   -110.516925     0.000000     0.109876  -110.407049
	   91 D(1,6,2,7)      =    109.044759     0.000002     0.087847   109.132605
	   92 D(1,6,5,4)      =     84.161501    -0.000002    -0.014440    84.147061
	   93 D(1,6,5,21)     =   -154.556588    -0.000003    -0.076847  -154.633435
	   94 D(1,6,5,22)     =    -35.019998     0.000000     0.119018   -34.900980
	   95 D(2,1,6,5)      =    -95.964306    -0.000001    -0.025693   -95.989999
	   96 D(2,1,6,18)     =    109.524357    -0.000001     0.048040   109.572397
	   97 D(2,3,4,5)      =     33.770540    -0.000001     0.076591    33.847131
	   98 D(2,3,4,23)     =    -82.280465     0.000002     0.226372   -82.054093
	   99 D(2,3,4,24)     =    158.019943    -0.000001     0.102687   158.122629
	  100 D(2,6,1,19)     =   -107.834530     0.000000    -0.049084  -107.883614
	  101 D(2,6,1,20)     =    108.134828    -0.000002    -0.101750   108.033078
	  102 D(2,6,5,4)      =     19.632931     0.000002     0.057832    19.690763
	  103 D(2,6,5,21)     =    140.914841     0.000001    -0.004575   140.910266
	  104 D(2,6,5,22)     =    -99.548568     0.000005     0.191289   -99.357279
	  105 D(2,7,8,9)      =    178.092997     0.000001     0.108250   178.201247
	  106 D(2,7,8,17)     =     -2.621861     0.000001     0.153162    -2.468699
	  107 D(2,7,12,11)    =   -178.236678    -0.000001    -0.093774  -178.330453
	  108 D(2,7,12,13)    =      1.572949    -0.000000    -0.034020     1.538928
	  109 D(3,2,1,6)      =     94.605460     0.000005     0.192253    94.797714
	  110 D(3,2,1,19)     =   -158.126276     0.000003     0.094213  -158.032063
	  111 D(3,2,1,20)     =    -13.152074     0.000005     0.244874   -12.907200
	  112 D(3,2,6,5)      =      1.121217    -0.000002    -0.011040     1.110176
	  113 D(3,2,6,18)     =    143.089359     0.000001     0.152999   143.242358
	  114 D(3,2,7,8)      =    -68.830845     0.000001     0.405812   -68.425034
	  115 D(3,2,7,12)     =    109.075519     0.000002     0.581940   109.657459
	  116 D(3,4,5,6)      =    -32.864999     0.000000    -0.085753   -32.950752
	  117 D(3,4,5,21)     =   -153.873654     0.000001    -0.032293  -153.905946
	  118 D(3,4,5,22)     =     86.379143    -0.000003    -0.244803    86.134340
	  119 D(4,3,2,6)      =    -21.493186     0.000002    -0.036620   -21.529806
	  120 D(4,3,2,7)      =    120.375901    -0.000000    -0.026378   120.349522
	  121 D(4,5,6,18)     =   -122.015351    -0.000002    -0.106277  -122.121628
	  122 D(5,4,3,25)     =    154.307289    -0.000003    -0.037237   154.270052
	  123 D(5,4,3,26)     =    -85.422842     0.000002     0.231376   -85.191466
	  124 D(5,6,1,19)     =    156.201164    -0.000001    -0.074776   156.126387
	  125 D(5,6,1,20)     =     12.170522    -0.000003    -0.127442    12.043079
	  126 D(5,6,2,7)      =   -139.317099    -0.000001    -0.033070  -139.350169
	  127 D(6,1,2,7)      =   -111.430967     0.000002     0.035620  -111.395347
	  128 D(6,2,1,19)     =    107.268264    -0.000003    -0.098040   107.170224
	  129 D(6,2,1,20)     =   -107.757534    -0.000000     0.052621  -107.704913
	  130 D(6,2,3,25)     =   -142.989682     0.000003     0.060583  -142.929099
	  131 D(6,2,3,26)     =     97.920361     0.000001    -0.109658    97.810704
	  132 D(6,2,7,8)      =     66.947624     0.000002     0.476814    67.424438
	  133 D(6,2,7,12)     =   -115.146011     0.000003     0.652942  -114.493069
	  134 D(6,5,4,23)     =     83.157872    -0.000002    -0.211797    82.946075
	  135 D(6,5,4,24)     =   -157.063259     0.000001    -0.084144  -157.147403
	  136 D(7,2,1,19)     =     -4.162703    -0.000001    -0.062420    -4.225123
	  137 D(7,2,1,20)     =    140.811498     0.000002     0.088241   140.899740
	  138 D(7,2,3,25)     =     -1.120595     0.000002     0.070825    -1.049770
	  139 D(7,2,3,26)     =   -120.210552    -0.000001    -0.099416  -120.309968
	  140 D(7,2,6,18)     =      2.651043     0.000002     0.130969     2.782012
	  141 D(7,8,9,10)     =      0.074700     0.000000     0.010570     0.085269
	  142 D(7,8,9,16)     =    179.659684     0.000000     0.018588   179.678272
	  143 D(7,12,11,10)   =      0.280010    -0.000000    -0.047478     0.232532
	  144 D(7,12,11,14)   =   -179.854428    -0.000000    -0.005195  -179.859623
	  145 D(8,7,12,11)    =     -0.304531     0.000001     0.085593    -0.218938
	  146 D(8,7,12,13)    =    179.505096     0.000001     0.145347   179.650443
	  147 D(8,9,10,11)    =     -0.102888     0.000000     0.029973    -0.072915
	  148 D(8,9,10,15)    =    179.725376     0.000000     0.009936   179.735312
	  149 D(9,8,7,12)     =      0.127485    -0.000001    -0.069058     0.058427
	  150 D(9,10,11,12)   =     -0.072650    -0.000000    -0.010887    -0.083537
	  151 D(9,10,11,14)   =   -179.937978    -0.000000    -0.054168  -179.992146
	  152 D(10,9,8,17)    =   -179.203838    -0.000000    -0.038932  -179.242770
	  153 D(10,11,12,13)  =   -179.527802    -0.000001    -0.108558  -179.636360
	  154 D(11,10,9,16)   =   -179.687298     0.000000     0.017841  -179.669458
	  155 D(12,7,8,17)    =    179.412627    -0.000000    -0.024146   179.388481
	  156 D(12,11,10,15)  =   -179.900862     0.000000     0.009233  -179.891628
	  157 D(13,12,11,14)  =      0.337760    -0.000001    -0.066275     0.271485
	  158 D(14,11,10,15)  =      0.233810    -0.000000    -0.034047     0.199763
	  159 D(15,10,9,16)   =      0.140965    -0.000000    -0.002196     0.138770
	  160 D(16,9,8,17)    =      0.381147    -0.000000    -0.030914     0.350233
	  161 D(18,6,1,19)    =      1.689827    -0.000001    -0.001043     1.688783
	  162 D(18,6,1,20)    =   -142.340815    -0.000002    -0.053709  -142.394525
	  163 D(18,6,5,21)    =     -0.733441    -0.000003    -0.168684    -0.902124
	  164 D(18,6,5,22)    =    118.803150     0.000001     0.027181   118.830330
	  165 D(21,5,4,23)    =    -37.850783    -0.000001    -0.158337   -38.009120
	  166 D(21,5,4,24)    =     81.928087     0.000002    -0.030684    81.897402
	  167 D(22,5,4,23)    =   -157.597986    -0.000005    -0.370848  -157.968833
	  168 D(22,5,4,24)    =    -37.819116    -0.000002    -0.243194   -38.062311
	  169 D(23,4,3,25)    =     38.256283     0.000000     0.112544    38.368827
	  170 D(23,4,3,26)    =    158.526152     0.000005     0.381157   158.907309
	  171 D(24,4,3,25)    =    -81.443309    -0.000003    -0.011141   -81.454450
	  172 D(24,4,3,26)    =     38.826560     0.000002     0.257472    39.084032
	 ---------------------------------------------------------------------------
	Successfully symmetrized geometry.

  ==> Convergence Check <==

  Measures of convergence in internal coordinates in au.
  Criteria marked as inactive (o), active & met (*), and active & unmet ( ).
  --------------------------------------------------------------------------------------------- ~
   Step     Total Energy     Delta E     MAX Force     RMS Force      MAX Disp      RMS Disp    ~
  --------------------------------------------------------------------------------------------- ~
    Convergence Criteria    1.00e-06 *    3.00e-04 *             o    1.20e-03 *             o  ~
  --------------------------------------------------------------------------------------------- ~
      1    -923.98545681   -9.24e+02      1.79e-02      4.97e-03 o    3.87e-02      1.37e-02 o  ~
  ---------------------------------------------------------------------------------------------

	Writing optimization data to binary file.
	Structure for next step:
	Cartesian Geometry (in Angstrom)
	    C     1.9273914496   0.7620195120  -2.1175404072
	    C     1.5774181847   0.6460635995  -0.6651415410
	    C     2.3971942190   1.5162445775   0.2792758877
	    C     3.6474599559   0.6906251417   0.5750451774
	    C     3.9233491359  -0.0733301913  -0.7194792060
	    C     2.5485583448  -0.3326865315  -1.2960098004
	    C     0.2225314938   0.2387634029  -0.2559360659
	    C     0.0533438792  -0.6522254405   0.7996980967
	    C    -1.2081083744  -1.0229189836   1.2284295905
	    C    -2.3208153885  -0.4976402528   0.5926445658
	    C    -2.1799237045   0.3897689014  -0.4594076656
	    C    -0.9098089970   0.7533523647  -0.8744871907
	    H    -0.7944792850   1.4483989414  -1.6891957526
	    H    -3.0527481110   0.7903570889  -0.9443363889
	   CL    -3.9006470077  -0.9597634452   1.1162680512
	    H    -1.3317767205  -1.7161953371   2.0418334630
	    H     0.9227094192  -1.0675497043   1.2830372347
	    H     2.2276667296  -1.3419375003  -1.4918436472
	    H     1.1773817498   0.4705783880  -2.8337682694
	    H     2.5612044987   1.5816539918  -2.4178440774
	    H     4.4649351373  -0.9967943198  -0.5414229087
	    H     4.5208257740   0.5288799023  -1.4020650982
	    H     3.4124791706  -0.0271024664   1.3588288774
	    H     4.4891028962   1.2884251693   0.9134411478
	    H     1.8342700515   1.7506491825   1.1773972693
	    H     2.6585208070   2.4577745022  -0.2016586672
			--------------------------
			 OPTKING Finished Execution 
			--------------------------

    Structure for next step:
    Molecular point group: c1
    Full point group: C1

    Geometry (in Angstrom), charge = 0, multiplicity = 1:

    C            1.911706052986     0.758571941002    -2.113869699261
    C            1.561732786721     0.642616028005    -0.661470827341
    C            2.381508824233     1.512797009479     0.282946604989
    C            3.631774566070     0.687177570362     0.578715895870
    C            3.907663747134    -0.076777765626    -0.715808492608
    C            2.532872950685    -0.336134106866    -1.292339089263
    C            0.206846090481     0.235315829821    -0.252265350687
    C            0.037658475190    -0.655673017135     0.803368816080
    C           -1.223793783363    -1.026366561667     1.232100311590
    C           -2.336500801840    -0.501087828786     0.596315284369
    C           -2.195609117209     0.386321328889    -0.455736951230
    C           -0.925494404739     0.749904793614    -0.870816477904
    H           -0.810164692346     1.444951373048    -1.685525043015
    H           -3.068433527139     0.786909517986    -0.940665676366
    CL          -3.916332427234    -0.963211022971     1.119938771774
    H           -1.347462129861    -1.719642917826     2.045504187203
    H            0.907024018644    -1.070997282525     1.286707955961
    H            2.211981334196    -1.345385079626    -1.488172936836
    H            1.161696350243     0.467130815808    -2.830097564284
    H            2.545519104620     1.578206423965    -2.414173370632
    H            4.449249750717    -1.000241897765    -0.537752194642
    H            4.505140387622     0.525432330400    -1.398394387453
    H            3.396793779878    -0.030550040556     1.362499598927
    H            4.473417509679     1.284977600299     0.917111867664
    H            1.818584654537     1.747201615400     1.181067990136
    H            2.642835413286     2.454326937876    -0.197987951804


Scratch directory: /local_scratch/pbs.4080490.pbs02/
gradient() will perform analytic gradient computation.

*** tstart() called on skystd28.palmetto.clemson.edu
*** at Thu Nov 25 23:53:32 2021

   => Loading Basis Set <=

    Name: CC-PVTZ
    Role: ORBITAL
    Keyword: BASIS
    atoms 1-12         entry C          line   186 file /home/maxbuskirk/.conda/envs/psifour/share/psi4/basis/cc-pvtz.gbs 
    atoms 13-14, 16-26 entry H          line    23 file /home/maxbuskirk/.conda/envs/psifour/share/psi4/basis/cc-pvtz.gbs 
    atoms 15           entry CL         line   847 file /home/maxbuskirk/.conda/envs/psifour/share/psi4/basis/cc-pvtz.gbs 


         ---------------------------------------------------------
                                   SCF
               by Justin Turney, Rob Parrish, Andy Simmonett
                          and Daniel G. A. Smith
                              RHF Reference
                        1 Threads,    500 MiB Core
         ---------------------------------------------------------

  ==> Geometry <==

    Molecular point group: c1
    Full point group: C1

    Geometry (in Angstrom), charge = 0, multiplicity = 1:

       Center              X                  Y                   Z               Mass       
    ------------   -----------------  -----------------  -----------------  -----------------
         C            1.911706052986     0.758571941002    -2.113869699261    12.000000000000
         C            1.561732786721     0.642616028005    -0.661470827341    12.000000000000
         C            2.381508824233     1.512797009479     0.282946604989    12.000000000000
         C            3.631774566070     0.687177570362     0.578715895870    12.000000000000
         C            3.907663747134    -0.076777765626    -0.715808492608    12.000000000000
         C            2.532872950685    -0.336134106866    -1.292339089263    12.000000000000
         C            0.206846090481     0.235315829821    -0.252265350687    12.000000000000
         C            0.037658475190    -0.655673017135     0.803368816080    12.000000000000
         C           -1.223793783363    -1.026366561667     1.232100311590    12.000000000000
         C           -2.336500801840    -0.501087828786     0.596315284369    12.000000000000
         C           -2.195609117209     0.386321328889    -0.455736951230    12.000000000000
         C           -0.925494404739     0.749904793614    -0.870816477904    12.000000000000
         H           -0.810164692346     1.444951373048    -1.685525043015     1.007825032230
         H           -3.068433527139     0.786909517986    -0.940665676366     1.007825032230
         CL          -3.916332427234    -0.963211022971     1.119938771774    34.968852682000
         H           -1.347462129861    -1.719642917826     2.045504187203     1.007825032230
         H            0.907024018644    -1.070997282525     1.286707955961     1.007825032230
         H            2.211981334196    -1.345385079626    -1.488172936836     1.007825032230
         H            1.161696350243     0.467130815808    -2.830097564284     1.007825032230
         H            2.545519104620     1.578206423965    -2.414173370632     1.007825032230
         H            4.449249750717    -1.000241897765    -0.537752194642     1.007825032230
         H            4.505140387622     0.525432330400    -1.398394387453     1.007825032230
         H            3.396793779878    -0.030550040556     1.362499598927     1.007825032230
         H            4.473417509679     1.284977600299     0.917111867664     1.007825032230
         H            1.818584654537     1.747201615400     1.181067990136     1.007825032230
         H            2.642835413286     2.454326937876    -0.197987951804     1.007825032230

  Running in c1 symmetry.

  Rotational constants: A =      0.07381  B =      0.01097  C =      0.01034 [cm^-1]
  Rotational constants: A =   2212.89576  B =    328.79549  C =    310.13413 [MHz]
  Nuclear repulsion =  838.954643661326713

  Charge       = 0
  Multiplicity = 1
  Electrons    = 102
  Nalpha       = 51
  Nbeta        = 51

  ==> Algorithm <==

  SCF Algorithm Type is DF.
  DIIS enabled.
  MOM disabled.
  Fractional occupation disabled.
  Guess Type is READ.
  Energy threshold   = 1.00e-10
  Density threshold  = 1.00e-10
  Integral threshold = 1.00e-12

  ==> Primary Basis <==

  Basis Set: CC-PVTZ
    Blend: CC-PVTZ
    Number of shells: 210
    Number of basis functions: 576
    Number of Cartesian functions: 654
    Spherical Harmonics?: true
    Max angular momentum: 3

   => Loading Basis Set <=

    Name: (CC-PVTZ AUX)
    Role: JKFIT
    Keyword: DF_BASIS_SCF
    atoms 1-12         entry C          line   125 file /home/maxbuskirk/.conda/envs/psifour/share/psi4/basis/cc-pvtz-jkfit.gbs 
    atoms 13-14, 16-26 entry H          line    51 file /home/maxbuskirk/.conda/envs/psifour/share/psi4/basis/cc-pvtz-jkfit.gbs 
    atoms 15           entry CL         line   689 file /home/maxbuskirk/.conda/envs/psifour/share/psi4/basis/cc-pvtz-jkfit.gbs 

   => Loading Basis Set <=

    Name: CC-PVTZ
    Role: ORBITAL
    Keyword: BASIS
    atoms 1-12         entry C          line   186 file /home/maxbuskirk/.conda/envs/psifour/share/psi4/basis/cc-pvtz.gbs 
    atoms 13-14, 16-26 entry H          line    23 file /home/maxbuskirk/.conda/envs/psifour/share/psi4/basis/cc-pvtz.gbs 
    atoms 15           entry CL         line   847 file /home/maxbuskirk/.conda/envs/psifour/share/psi4/basis/cc-pvtz.gbs 

  Reading orbitals from file /local_scratch/pbs.4080490.pbs02/rCl.mol.789199.180.npy, no projection.

  ==> Integral Setup <==

  ==> DiskDFJK: Density-Fitted J/K Matrices <==

    J tasked:                  Yes
    K tasked:                  Yes
    wK tasked:                  No
    OpenMP threads:              1
    Integrals threads:           1
    Memory [MiB]:              375
    Algorithm:                Disk
    Integral Cache:           NONE
    Schwarz Cutoff:          1E-12
    Fitting Condition:       1E-10

   => Auxiliary Basis Set <=

  Basis Set: (CC-PVTZ AUX)
    Blend: CC-PVTZ-JKFIT
    Number of shells: 467
    Number of basis functions: 1459
    Number of Cartesian functions: 1752
    Spherical Harmonics?: true
    Max angular momentum: 4

  Minimum eigenvalue in the overlap matrix is 2.8976707061E-05.
  Reciprocal condition number of the overlap matrix is 2.9555314400E-06.
    Using symmetric orthogonalization.

  ==> Pre-Iterations <==

  SCF Guess: Orbitals guess was supplied from a previous computation.

   -------------------------------------------------------
    Irrep   Nso     Nmo     Nalpha   Nbeta   Ndocc  Nsocc
   -------------------------------------------------------
     A        576     576      51      51      51       0
   -------------------------------------------------------
    Total     576     576      51      51      51       0
   -------------------------------------------------------

  ==> Iterations <==

                           Total Energy        Delta E     RMS |[F,P]|

   @DF-RHF iter   0:  -921.76383963388605   -9.21764e+02   2.19265e-04 
   @DF-RHF iter   1:  -921.62448004390353    1.39360e-01   3.51133e-05 DIIS
   @DF-RHF iter   2:  -921.62470055667234   -2.20513e-04   2.11090e-05 DIIS
   @DF-RHF iter   3:  -921.62477438869507   -7.38320e-05   3.41372e-06 DIIS
   @DF-RHF iter   4:  -921.62477715496175   -2.76627e-06   1.74476e-06 DIIS
   @DF-RHF iter   5:  -921.62477780996574   -6.55004e-07   4.99094e-07 DIIS
   @DF-RHF iter   6:  -921.62477793409300   -1.24127e-07   2.37338e-07 DIIS
   @DF-RHF iter   7:  -921.62477796654719   -3.24542e-08   1.11286e-07 DIIS
   @DF-RHF iter   8:  -921.62477797721488   -1.06677e-08   4.96471e-08 DIIS
   @DF-RHF iter   9:  -921.62477797945621   -2.24134e-09   1.89005e-08 DIIS
   @DF-RHF iter  10:  -921.62477797977431   -3.18096e-10   6.72121e-09 DIIS
   @DF-RHF iter  11:  -921.62477797979795   -2.36469e-11   2.28734e-09 DIIS
   @DF-RHF iter  12:  -921.62477797979727    6.82121e-13   6.14018e-10 DIIS
   @DF-RHF iter  13:  -921.62477797979875   -1.47793e-12   2.27079e-10 DIIS
   @DF-RHF iter  14:  -921.62477797979705    1.70530e-12   6.53510e-11 DIIS
  Energy and wave function converged.


  ==> Post-Iterations <==

    Orbital Energies [Eh]
    ---------------------

    Doubly Occupied:                                                      

       1A   -104.834195     2A    -11.294332     3A    -11.242711  
       4A    -11.242184     5A    -11.241946     6A    -11.237814  
       7A    -11.236973     8A    -11.234873     9A    -11.226641  
      10A    -11.224441    11A    -11.220457    12A    -11.219598  
      13A    -11.218556    14A    -10.559588    15A     -8.026513  
      16A     -8.024598    17A     -8.024566    18A     -1.201678  
      19A     -1.181987    20A     -1.117358    21A     -1.043643  
      22A     -1.029389    23A     -1.006202    24A     -0.957730  
      25A     -0.855673    26A     -0.839928    27A     -0.819498  
      28A     -0.783967    29A     -0.752716    30A     -0.707104  
      31A     -0.656761    32A     -0.651943    33A     -0.639614  
      34A     -0.628877    35A     -0.599653    36A     -0.584480  
      37A     -0.575461    38A     -0.574404    39A     -0.544844  
      40A     -0.531612    41A     -0.513994    42A     -0.490443  
      43A     -0.486997    44A     -0.478875    45A     -0.475884  
      46A     -0.458354    47A     -0.450236    48A     -0.414039  
      49A     -0.393010    50A     -0.349321    51A     -0.319761  

    Virtual:                                                              

      52A      0.114816    53A      0.121092    54A      0.135426  
      55A      0.151616    56A      0.155110    57A      0.166329  
      58A      0.180106    59A      0.181459    60A      0.192534  
      61A      0.205917    62A      0.210652    63A      0.214169  
      64A      0.221013    65A      0.228463    66A      0.256562  
      67A      0.264758    68A      0.277985    69A      0.280901  
      70A      0.295642    71A      0.303909    72A      0.322254  
      73A      0.338826    74A      0.343569    75A      0.370341  
      76A      0.377902    77A      0.393674    78A      0.408276  
      79A      0.414536    80A      0.418978    81A      0.422362  
      82A      0.427748    83A      0.432986    84A      0.435782  
      85A      0.443227    86A      0.450934    87A      0.464361  
      88A      0.475577    89A      0.485255    90A      0.494701  
      91A      0.499377    92A      0.502293    93A      0.517756  
      94A      0.527598    95A      0.535380    96A      0.536121  
      97A      0.553292    98A      0.555654    99A      0.563239  
     100A      0.574364   101A      0.582004   102A      0.590163  
     103A      0.594879   104A      0.596426   105A      0.601766  
     106A      0.608848   107A      0.611540   108A      0.614048  
     109A      0.620423   110A      0.625311   111A      0.631333  
     112A      0.643159   113A      0.649301   114A      0.653881  
     115A      0.659049   116A      0.665216   117A      0.667489  
     118A      0.682807   119A      0.684134   120A      0.687838  
[...]
	   84 D(1,2,3,25)     =    152.490563     0.000000    -0.002051   152.488512
	   85 D(1,2,3,26)     =     33.415184    -0.000000    -0.005199    33.409985
	   86 D(1,2,6,5)      =    111.847675     0.000000     0.002841   111.850516
	   87 D(1,2,6,18)     =   -106.276171     0.000000    -0.004913  -106.281084
	   88 D(1,2,7,8)      =    152.648008    -0.000000    -0.023380   152.624628
	   89 D(1,2,7,12)     =    -28.034554    -0.000000    -0.020326   -28.054880
	   90 D(1,6,2,3)      =   -110.244931    -0.000000    -0.001507  -110.246438
	   91 D(1,6,2,7)      =    110.047270    -0.000000     0.003858   110.051129
	   92 D(1,6,5,4)      =     83.984218     0.000000     0.004805    83.989023
	   93 D(1,6,5,21)     =   -154.770929    -0.000000     0.003915  -154.767014
	   94 D(1,6,5,22)     =    -34.982850     0.000000     0.007041   -34.975809
	   95 D(2,1,6,5)      =    -95.981019     0.000000     0.002835   -95.978184
	   96 D(2,1,6,18)     =    109.275107    -0.000000    -0.009200   109.265906
	   97 D(2,3,4,5)      =     34.353946     0.000000     0.010602    34.364548
	   98 D(2,3,4,23)     =    -81.335793     0.000000     0.011982   -81.323811
	   99 D(2,3,4,24)     =    158.712803     0.000000     0.009761   158.722564
	  100 D(2,6,1,19)     =   -108.804798    -0.000000    -0.008346  -108.813144
	  101 D(2,6,1,20)     =    107.717542    -0.000000    -0.002023   107.715519
	  102 D(2,6,5,4)      =     19.487283    -0.000000     0.005020    19.492303
	  103 D(2,6,5,21)     =    140.732136    -0.000000     0.004130   140.736266
	  104 D(2,6,5,22)     =    -99.479786     0.000000     0.007257   -99.472529
	  105 D(2,7,8,9)      =    179.634128     0.000000     0.013044   179.647172
	  106 D(2,7,8,17)     =     -0.941859     0.000000     0.004038    -0.937821
	  107 D(2,7,12,11)    =   -179.823633    -0.000000    -0.010953  -179.834586
	  108 D(2,7,12,13)    =     -0.557150    -0.000000    -0.009006    -0.566156
	  109 D(3,2,1,6)      =     94.473084     0.000000    -0.000054    94.473031
	  110 D(3,2,1,19)     =   -158.623841     0.000000     0.002019  -158.621822
	  111 D(3,2,1,20)     =    -13.431383     0.000000     0.001016   -13.430367
	  112 D(3,2,6,5)      =      1.602743     0.000000     0.001335     1.604078
	  113 D(3,2,6,18)     =    143.478898    -0.000000    -0.006420   143.472478
	  114 D(3,2,7,8)      =    -53.330078    -0.000000    -0.007716   -53.337794
	  115 D(3,2,7,12)     =    125.987360    -0.000000    -0.004662   125.982698
	  116 D(3,4,5,6)      =    -33.053160    -0.000000    -0.010344   -33.063503
	  117 D(3,4,5,21)     =   -154.080941     0.000000    -0.009099  -154.090040
	  118 D(3,4,5,22)     =     85.949806    -0.000000    -0.012210    85.937596
	  119 D(4,3,2,6)      =    -22.146135    -0.000000    -0.006985   -22.153120
	  120 D(4,3,2,7)      =    118.803223    -0.000000    -0.019576   118.783647
	  121 D(4,5,6,18)     =   -121.980472     0.000000     0.016988  -121.963484
	  122 D(5,4,3,25)     =    155.262482    -0.000000     0.007154   155.269636
	  123 D(5,4,3,26)     =    -84.456319     0.000000     0.010634   -84.445685
	  124 D(5,6,1,19)     =    155.214183    -0.000000    -0.005511   155.208671
	  125 D(5,6,1,20)     =     11.736522    -0.000000     0.000812    11.737334
	  126 D(5,6,2,7)      =   -138.105055    -0.000000     0.006700  -138.098355
	  127 D(6,1,2,7)      =   -110.635507     0.000000     0.015466  -110.620041
	  128 D(6,2,1,19)     =    106.903074    -0.000000     0.002073   106.905147
	  129 D(6,2,1,20)     =   -107.904468    -0.000000     0.001070  -107.903398
	  130 D(6,2,3,25)     =   -143.941527     0.000000    -0.003672  -143.945200
	  131 D(6,2,3,26)     =     96.983094    -0.000000    -0.006820    96.976274
	  132 D(6,2,7,8)      =     81.488585     0.000000    -0.015625    81.472960
	  133 D(6,2,7,12)     =    -99.193977     0.000000    -0.012571   -99.206548
	  134 D(6,5,4,23)     =     82.727726    -0.000000    -0.011879    82.715848
	  135 D(6,5,4,24)     =   -157.340976    -0.000000    -0.008783  -157.349759
	  136 D(7,2,1,19)     =     -3.732432     0.000000     0.017539    -3.714893
	  137 D(7,2,1,20)     =    141.460026     0.000000     0.016536   141.476561
	  138 D(7,2,3,25)     =     -2.992169    -0.000000    -0.016263    -3.008432
	  139 D(7,2,3,26)     =   -122.067548    -0.000000    -0.019411  -122.086959
	  140 D(7,2,6,18)     =      3.771099    -0.000000    -0.001055     3.770044
	  141 D(7,8,9,10)     =      0.078929    -0.000000    -0.004446     0.074483
	  142 D(7,8,9,16)     =    179.715124    -0.000000    -0.005038   179.710086
	  143 D(7,12,11,10)   =      0.337072     0.000000     0.000115     0.337188
	  144 D(7,12,11,14)   =    179.955936     0.000000     0.002940   179.958876
	  145 D(8,7,12,11)    =     -0.496749    -0.000000    -0.007928    -0.504677
	  146 D(8,7,12,13)    =    178.769734    -0.000000    -0.005981   178.763753
	  147 D(8,9,10,11)    =     -0.248668    -0.000000    -0.003729    -0.252397
	  148 D(8,9,10,15)    =    179.786166     0.000000     0.004731   179.790896
	  149 D(9,8,7,12)     =      0.286674     0.000000     0.010122     0.296796
	  150 D(9,10,11,12)   =      0.044885     0.000000     0.005861     0.050746
	  151 D(9,10,11,14)   =   -179.578379     0.000000     0.003045  -179.575334
	  152 D(10,9,8,17)    =   -179.346227     0.000000     0.004519  -179.341708
	  153 D(10,11,12,13)  =   -178.931212    -0.000000    -0.001855  -178.933068
	  154 D(11,10,9,16)   =   -179.889522    -0.000000    -0.003159  -179.892681
	  155 D(12,7,8,17)    =    179.710687     0.000000     0.001115   179.711803
	  156 D(12,11,10,15)  =   -179.990002    -0.000000    -0.002611  -179.992614
	  157 D(13,12,11,14)  =      0.687651     0.000000     0.000969     0.688621
	  158 D(14,11,10,15)  =      0.386734    -0.000000    -0.005427     0.381307
	  159 D(15,10,9,16)   =      0.145312     0.000000     0.005300     0.150612
	  160 D(16,9,8,17)    =      0.289968     0.000000     0.003927     0.293895
	  161 D(18,6,1,19)    =      0.470309    -0.000000    -0.017546     0.452762
	  162 D(18,6,1,20)    =   -143.007351    -0.000000    -0.011223  -143.018575
	  163 D(18,6,5,21)    =     -0.735619     0.000000     0.016098    -0.719521
	  164 D(18,6,5,22)    =    119.052460     0.000000     0.019224   119.071684
	  165 D(21,5,4,23)    =    -38.300055     0.000000    -0.010634   -38.310690
	  166 D(21,5,4,24)    =     81.631243     0.000000    -0.007539    81.623704
	  167 D(22,5,4,23)    =   -158.269308    -0.000000    -0.013745  -158.283053
	  168 D(22,5,4,24)    =    -38.338011    -0.000000    -0.010649   -38.348660
	  169 D(23,4,3,25)    =     39.572743    -0.000000     0.008534    39.581277
	  170 D(23,4,3,26)    =    159.853942     0.000000     0.012014   159.865956
	  171 D(24,4,3,25)    =    -80.378662    -0.000000     0.006313   -80.372348
	  172 D(24,4,3,26)    =     39.902537     0.000000     0.009793    39.912331
	 ---------------------------------------------------------------------------
	Successfully symmetrized geometry.

  ==> Convergence Check <==

  Measures of convergence in internal coordinates in au.
  Criteria marked as inactive (o), active & met (*), and active & unmet ( ).
  ---------------------------------------------------------------------------------------------
   Step     Total Energy     Delta E     MAX Force     RMS Force      MAX Disp      RMS Disp   
  ---------------------------------------------------------------------------------------------
    Convergence Criteria    1.00e-06 *    3.00e-04 *             o    1.20e-03 *             o
  ---------------------------------------------------------------------------------------------
      9    -923.99123601   -4.29e-07 *    2.27e-05 *    5.68e-06 o    4.08e-04 *    1.24e-04 o  ~
  ---------------------------------------------------------------------------------------------


  **** Optimization is complete! (in 9 steps) ****

  ==> Optimization Summary <==

  Measures of convergence in internal coordinates in au.
  --------------------------------------------------------------------------------------------------------------- ~
   Step         Total Energy             Delta E       MAX Force       RMS Force        MAX Disp        RMS Disp  ~
  --------------------------------------------------------------------------------------------------------------- ~
      1    -923.985456805866   -923.985456805866      0.01790773      0.00496615      0.03868854      0.01365291  ~
      2    -923.991024587225     -0.005567781359      0.00197884      0.00041946      0.02992772      0.00581107  ~
      3    -923.991099528621     -0.000074941396      0.00036076      0.00007961      0.04877438      0.00884280  ~
      4    -923.991140996976     -0.000041468355      0.00042265      0.00011647      0.09318260      0.01639704  ~
      5    -923.991174722456     -0.000033725480      0.00202613      0.00034738      0.05512831      0.00952667  ~
      6    -923.991215799673     -0.000041077217      0.00060489      0.00014299      0.05567118      0.00952900  ~
      7    -923.991232805965     -0.000017006292      0.00031841      0.00007098      0.00537911      0.00090456  ~
      8    -923.991235578680     -0.000002772715      0.00014034      0.00002507      0.00603929      0.00104578  ~
      9    -923.991236007359     -0.000000428679      0.00002271      0.00000568      0.00040806      0.00012374  ~
  --------------------------------------------------------------------------------------------------------------- ~

	Writing optimization data to binary file.
	Final energy is   -923.9912360073591
	Final (previous) structure:
	Cartesian Geometry (in Angstrom)
	    C     1.8904768388   0.8443369036  -2.1213764432
	    C     1.5488273435   0.6888429875  -0.6731312231
	    C     2.3971663542   1.5153967885   0.2877115954
	    C     3.6314715334   0.6554808430   0.5546453764
	    C     3.8860675738  -0.0704190749  -0.7670096035
	    C     2.5020906781  -0.2831102310  -1.3439834963
	    C     0.1996029719   0.2729800145  -0.2513240706
	    C     0.0359092327  -0.4029207078   0.9576336740
	    C    -1.2131833400  -0.8054929874   1.3966432046
	    C    -2.3249140556  -0.5308087064   0.6142335345
	    C    -2.1950128130   0.1413910471  -0.5887016722
	    C    -0.9346596581   0.5404426307  -1.0093739045
	    H    -0.8365281946   1.0788064906  -1.9373121603
	    H    -3.0679781924   0.3524852376  -1.1801590624
	   CL    -3.8909490156  -1.0341731227   1.1502146952
	    H    -1.3314349325  -1.3303326197   2.3278766537
	    H     0.9020500590  -0.6256930976   1.5606670611
	    H     2.1604248082  -1.2795115475  -1.5688694728
	    H     1.1417936014   0.5851071315  -2.8505385878
	    H     2.5317083790   1.6671590248  -2.3952516093
	    H     4.4111231468  -1.0088728957  -0.6231442656
	    H     4.4906637439   0.5434414200  -1.4323569825
	    H     3.3826288334  -0.0844022762   1.3128618117
	    H     4.4861623255   1.2228403562   0.9115030212
	    H     1.8483627738   1.7480374024   1.1946380356
	    H     2.6785433248   2.4596514882  -0.1752134613
	Saving final (previous) structure.
	Cleaning optimization helper files.
			--------------------------
			 OPTKING Finished Execution 
			--------------------------

    Final optimized geometry and variables:
    Molecular point group: c1
    Full point group: C1

    Geometry (in Angstrom), charge = 0, multiplicity = 1:

    C            1.890476846229     0.844336906878    -2.121376451529
    C            1.548827349634     0.688842990213    -0.673131225731
    C            2.397166363598     1.515396794505     0.287711596525
    C            3.631471547701     0.655480845566     0.554645378535
    C            3.886067589090    -0.070419075167    -0.767009606490
    C            2.502090687975    -0.283110232125    -1.343983501584
    C            0.199602972643     0.272980015529    -0.251324071589
    C            0.035909232818    -0.402920709417     0.957633677800
    C           -1.213183344749    -0.805492990606     1.396643210139
    C           -2.324914064711    -0.530808708497     0.614233536941
    C           -2.195012821606     0.141391047632    -0.588701674487
    C           -0.934659661800     0.540442632832    -1.009373908435
    H           -0.836528197899     1.078806494874    -1.937312167943
    H           -3.067978204489     0.352485238998    -1.180159067072
    CL          -3.890949030896    -1.034173126813     1.150214699756
    H           -1.331434937706    -1.330332624904     2.327876662811
    H            0.902050062502    -0.625693100071     1.560667067222
    H            2.160424816687    -1.279511552525    -1.568869478969
    H            1.141793605838     0.585107133837    -2.850538599018
    H            2.531708388914     1.667159031316    -2.395251618755
    H            4.411123164178    -1.008872899671    -0.623144268063
    H            4.490663761529     0.543441422135    -1.432356988176
    H            3.382628846664    -0.084402276547     1.312861816889
    H            4.486162343169     1.222840360987     0.911503024745
    H            1.848362781090     1.748037409255     1.194638040247
    H            2.678543335308     2.459651497898    -0.175213462031

	Removing binary optimization data file.
	Cleaning optimization helper files.


Properties will be evaluated at   0.000000,   0.000000,   0.000000 [a0]
OEProp: No title given, name of density matrix used for the following properties is 'DF-MP2 relaxed density'
  Mulliken Charges: (a.u.)
   Center  Symbol    Alpha    Beta     Spin     Total
       1     C     3.21334  3.21334  0.00000 -0.42669
       2     C     2.98015  2.98015  0.00000  0.03971
       3     C     3.14828  3.14828  0.00000 -0.29656
       4     C     3.11745  3.11745  0.00000 -0.23489
       5     C     3.13822  3.13822  0.00000 -0.27644
       6     C     3.04835  3.04835  0.00000 -0.09670
       7     C     2.94627  2.94627  0.00000  0.10747
       8     C     3.06703  3.06703  0.00000 -0.13406
       9     C     3.09464  3.09464  0.00000 -0.18928
      10     C     2.95507  2.95507  0.00000  0.08985
      11     C     3.09264  3.09264  0.00000 -0.18528
      12     C     3.06793  3.06793  0.00000 -0.13587
      13     H     0.42014  0.42014  0.00000  0.15972
      14     H     0.41819  0.41819  0.00000  0.16363
      15    CL     8.56186  8.56186  0.00000 -0.12372
      16     H     0.41852  0.41852  0.00000  0.16295
      17     H     0.41935  0.41935  0.00000  0.16129
      18     H     0.42305  0.42305  0.00000  0.15389
      19     H     0.42725  0.42725  0.00000  0.14549
      20     H     0.43429  0.43429  0.00000  0.13142
      21     H     0.43196  0.43196  0.00000  0.13607
      22     H     0.43671  0.43671  0.00000  0.12659
      23     H     0.44062  0.44062  0.00000  0.11876
      24     H     0.43315  0.43315  0.00000  0.13370
      25     H     0.43038  0.43038  0.00000  0.13924
      26     H     0.43514  0.43514  0.00000  0.12971

   Total alpha = 51.00000, Total beta = 51.00000, Total charge = -0.00000

    Molecular point group: c1
    Full point group: C1

    Geometry (in Angstrom), charge = 0, multiplicity = 1:

       Center              X                  Y                   Z               Mass       
    ------------   -----------------  -----------------  -----------------  -----------------
         C            1.890476846229     0.844336906878    -2.121376451529    12.000000000000
         C            1.548827349634     0.688842990213    -0.673131225731    12.000000000000
         C            2.397166363598     1.515396794505     0.287711596525    12.000000000000
         C            3.631471547701     0.655480845566     0.554645378535    12.000000000000
         C            3.886067589090    -0.070419075167    -0.767009606490    12.000000000000
         C            2.502090687975    -0.283110232125    -1.343983501584    12.000000000000
         C            0.199602972643     0.272980015529    -0.251324071589    12.000000000000
         C            0.035909232818    -0.402920709417     0.957633677800    12.000000000000
         C           -1.213183344749    -0.805492990606     1.396643210139    12.000000000000
         C           -2.324914064711    -0.530808708497     0.614233536941    12.000000000000
         C           -2.195012821606     0.141391047632    -0.588701674487    12.000000000000
         C           -0.934659661800     0.540442632832    -1.009373908435    12.000000000000
         H           -0.836528197899     1.078806494874    -1.937312167943     1.007825032230
         H           -3.067978204489     0.352485238998    -1.180159067072     1.007825032230
         CL          -3.890949030896    -1.034173126813     1.150214699756    34.968852682000
         H           -1.331434937706    -1.330332624904     2.327876662811     1.007825032230
         H            0.902050062502    -0.625693100071     1.560667067222     1.007825032230
         H            2.160424816687    -1.279511552525    -1.568869478969     1.007825032230
         H            1.141793605838     0.585107133837    -2.850538599018     1.007825032230
         H            2.531708388914     1.667159031316    -2.395251618755     1.007825032230
         H            4.411123164178    -1.008872899671    -0.623144268063     1.007825032230
         H            4.490663761529     0.543441422135    -1.432356988176     1.007825032230
         H            3.382628846664    -0.084402276547     1.312861816889     1.007825032230
         H            4.486162343169     1.222840360987     0.911503024745     1.007825032230
         H            1.848362781090     1.748037409255     1.194638040247     1.007825032230
         H            2.678543335308     2.459651497898    -0.175213462031     1.007825032230



  Variable Map:
  ----------------------------------------------------------------------------
  "CURRENT CORRELATION ENERGY"           =>      -2.367157105616
  "CURRENT DIPOLE X"                     =>       2.328663718096
  "CURRENT DIPOLE Y"                     =>       0.565352975982
  "CURRENT DIPOLE Z"                     =>      -0.634665066007
  "CURRENT ENERGY"                       =>    -923.991236007359
  "CURRENT REFERENCE ENERGY"             =>    -921.624078901743
  "CUSTOM SCS-MP2 CORRELATION ENERGY"    =>      -2.339343540089
  "CUSTOM SCS-MP2 TOTAL ENERGY"          =>    -923.963422441833
  "HF TOTAL ENERGY"                      =>    -921.624078901743
  "MP2 CORRELATION ENERGY"               =>      -2.367157105616
  "MP2 DOUBLES ENERGY"                   =>      -2.367157105616
  "MP2 OPPOSITE-SPIN CORRELATION ENERGY" =>      -1.788797505636
  "MP2 SAME-SPIN CORRELATION ENERGY"     =>      -0.578359599980
  "MP2 SINGLES ENERGY"                   =>      -0.000000000000
  "MP2 TOTAL ENERGY"                     =>    -923.991236007359
  "NUCLEAR REPULSION ENERGY"             =>     838.748805543538
  "ONE-ELECTRON ENERGY"                  =>   -2925.872802161806
  "OPTIMIZATION ITERATIONS"              =>       9.000000000000
  "PCM POLARIZATION ENERGY"              =>       0.000000000000
  "PE ENERGY"                            =>       0.000000000000
  "SCF DIPOLE X"                         =>       2.328663718096
  "SCF DIPOLE Y"                         =>       0.565352975982
  "SCF DIPOLE Z"                         =>      -0.634665066007
  "SCF ITERATION ENERGY"                 =>    -921.624078901743
  "SCF ITERATIONS"                       =>      13.000000000000
  "SCF TOTAL ENERGY"                     =>    -921.624078901743
  "SCS-MP2 CORRELATION ENERGY"           =>      -2.339343540089
  "SCS-MP2 TOTAL ENERGY"                 =>    -923.963422441833
  "TWO-ELECTRON ENERGY"                  =>    1165.499917716525



    Psi4 stopped on: Friday, 26 November 2021 01:11AM
    Psi4 wall time for execution: 1:28:05.80

*** Psi4 exiting successfully. Buy a developer a beer!
