
    -----------------------------------------------------------------------
          Psi4: An Open-Source Ab Initio Electronic Structure Package
                               Psi4 1.4 release

                         Git: Rev {HEAD} 9485035 


    D. G. A. Smith, L. A. Burns, A. C. Simmonett, R. M. Parrish,
    M. C. Schieber, R. Galvelis, P. Kraus, H. Kruse, R. Di Remigio,
    A. Alenaizan, A. M. James, S. Lehtola, J. P. Misiewicz, M. Scheurer,
    R. A. Shaw, J. B. Schriber, Y. Xie, Z. L. Glick, D. A. Sirianni,
    J. S. O'Brien, J. M. Waldrop, A. Kumar, E. G. Hohenstein,
    B. P. Pritchard, B. R. Brooks, H. F. Schaefer III, A. Yu. Sokolov,
    K. Patkowski, A. E. DePrince III, U. Bozkaya, R. A. King,
    F. A. Evangelista, J. M. Turney, T. D. Crawford, C. D. Sherrill,
    J. Chem. Phys. 152(18) 184108 (2020). https://doi.org/10.1063/5.0006002

                            Additional Code Authors
    E. T. Seidl, C. L. Janssen, E. F. Valeev, M. L. Leininger,
    J. F. Gonthier, R. M. Richard, H. R. McAlexander, M. Saitow, X. Wang,
    P. Verma, and M. H. Lechner

             Previous Authors, Complete List of Code Contributors,
                       and Citations for Specific Modules
    https://github.com/psi4/psi4/blob/master/codemeta.json
    https://github.com/psi4/psi4/graphs/contributors
    http://psicode.org/psi4manual/master/introduction.html#citing-psifour

    -----------------------------------------------------------------------


    Psi4 started on: Friday, 01 October 2021 07:38PM

    Process ID: 819768
    Host:       skystd37.palmetto.clemson.edu
    PSIDATADIR: /home/maxbuskirk/.conda/envs/psifour/share/psi4
    Memory:     500.0 MiB
    Threads:    1
    
  ==> Input File <==

--------------------------------------------------------------------------
memory 32 GB

molecule mol {
1 1
 C     1.263455    -0.830095     0.301389
 C     0.000000    -0.000000     0.000000
 C    -0.828100    -0.881905    -0.953535
 C    -0.472970    -0.770684    -2.420947
 C     0.155456    -1.870251    -1.587045
 C     1.542853    -1.604898    -1.002898
 C    -2.201676    -1.295126    -0.539087
 C    -2.370892    -2.203472     0.527010
 C    -3.653159    -2.574239     0.958335
 C    -4.789773    -2.041204     0.326378
 C    -4.633753    -1.135841    -0.735316
 C    -3.347936    -0.764513    -1.161542
 H    -3.226532    -0.052607    -1.984346
 H    -5.514519    -0.716182    -1.231196
 O    -6.052300    -2.408727     0.745131
 H    -3.767281    -3.284400     1.783195
 H    -1.484800    -2.628883     1.010935
 H    -1.233840    -1.070073    -3.147300
 H     0.168346     0.061371    -2.730757
 H     1.028388    -1.554856     1.101091
 H     2.117444    -0.220673     0.642578
 H     2.093689    -2.541089    -0.819436
 H     2.151583    -0.997241    -1.696315
 H    -0.168663    -2.896966    -1.781531
 H    -0.571469     0.240628     0.910333
 H     0.264247     0.955866    -0.487476
 H     0.707946    -1.772894    -2.264113
 C    -7.012101    -1.749780    -0.032410
 H    -8.008399    -2.039804     0.298040
 H    -6.892044    -0.673091     0.078258
 H    -6.882449    -2.023880    -1.078346
}

set scf_type df
set opt_type ts
set basis cc-pVDZ
set reference rhf
set geom_maxiter 400


mol.update_geometry()
mol.symmetrize(1e-3)

e, wfn = optimize('mp2', return_wfn=True)
oeprop(wfn, "MULLIKEN_CHARGES")
mol.print_out()
print_variables()
--------------------------------------------------------------------------

  Memory set to  29.802 GiB by Python driver.

Scratch directory: /tmp/
gradient() will perform analytic gradient computation.

*** tstart() called on skystd37.palmetto.clemson.edu
*** at Fri Oct  1 19:38:34 2021

   => Loading Basis Set <=

    Name: CC-PVDZ
    Role: ORBITAL
    Keyword: BASIS
    atoms 1-12, 28            entry C          line   138 file /home/maxbuskirk/.conda/envs/psifour/share/psi4/basis/cc-pvdz.gbs 
    atoms 13-14, 16-27, 29-31 entry H          line    22 file /home/maxbuskirk/.conda/envs/psifour/share/psi4/basis/cc-pvdz.gbs 
    atoms 15                  entry O          line   198 file /home/maxbuskirk/.conda/envs/psifour/share/psi4/basis/cc-pvdz.gbs 


         ---------------------------------------------------------
                                   SCF
               by Justin Turney, Rob Parrish, Andy Simmonett
                          and Daniel G. A. Smith
                              RHF Reference
                        1 Threads,  30517 MiB Core
         ---------------------------------------------------------

  ==> Geometry <==

    Molecular point group: c1
    Full point group: C1

    Geometry (in Angstrom), charge = 1, multiplicity = 1:

       Center              X                  Y                   Z               Mass       
    ------------   -----------------  -----------------  -----------------  -----------------
         C            3.602803490309     0.611110666153     0.700078227491    12.000000000000
         C            2.339348490309     1.441205666153     0.398689227491    12.000000000000
         C            1.511248490309     0.559300666153    -0.554845772509    12.000000000000
         C            1.866378490309     0.670521666153    -2.022257772509    12.000000000000
         C            2.494804490309    -0.429045333847    -1.188355772509    12.000000000000
         C            3.882201490309    -0.163692333847    -0.604208772509    12.000000000000
         C            0.137672490309     0.146079666153    -0.140397772509    12.000000000000
         C           -0.031543509691    -0.762266333847     0.925699227491    12.000000000000
         C           -1.313810509691    -1.133033333847     1.357024227491    12.000000000000
         C           -2.450424509691    -0.599998333847     0.725067227491    12.000000000000
         C           -2.294404509691     0.305364666153    -0.336626772509    12.000000000000
         C           -1.008587509691     0.676692666153    -0.762852772509    12.000000000000
         H           -0.887183509691     1.388598666153    -1.585656772509     1.007825032230
         H           -3.175170509691     0.725023666153    -0.832506772509     1.007825032230
         O           -3.712951509691    -0.967521333847     1.143820227491    15.994914619570
         H           -1.427932509691    -1.843194333847     2.181884227491     1.007825032230
         H            0.854548490309    -1.187677333847     1.409624227491     1.007825032230
         H            1.105508490309     0.371132666153    -2.748610772509     1.007825032230
         H            2.507694490309     1.502576666153    -2.332067772509     1.007825032230
         H            3.367736490309    -0.113650333847     1.499780227491     1.007825032230
         H            4.456792490309     1.220532666153     1.041267227491     1.007825032230
         H            4.433037490309    -1.099883333847    -0.420746772509     1.007825032230
         H            4.490931490309     0.443964666153    -1.297625772509     1.007825032230
         H            2.170685490309    -1.455760333847    -1.382841772509     1.007825032230
         H            1.767879490309     1.681833666153     1.309022227491     1.007825032230
         H            2.603595490309     2.397071666153    -0.088786772509     1.007825032230
         H            3.047294490309    -0.331688333847    -1.865423772509     1.007825032230
         C           -4.672752509691    -0.308574333847     0.366279227491    12.000000000000
         H           -5.669050509691    -0.598598333847     0.696729227491     1.007825032230
         H           -4.552695509691     0.768114666153     0.476947227491     1.007825032230
         H           -4.543100509691    -0.582674333847    -0.679656772509     1.007825032230

  Running in c1 symmetry.

  Rotational constants: A =      0.06916  B =      0.01108  C =      0.01041 [cm^-1]
  Rotational constants: A =   2073.36031  B =    332.09737  C =    312.18565 [MHz]
  Nuclear repulsion =  881.283916497906489

  Charge       = 1
  Multiplicity = 1
  Electrons    = 102
  Nalpha       = 51
  Nbeta        = 51

  ==> Algorithm <==

  SCF Algorithm Type is DF.
  DIIS enabled.
  MOM disabled.
  Fractional occupation disabled.
  Guess Type is SAD.
  Energy threshold   = 1.00e-10
  Density threshold  = 1.00e-10
  Integral threshold = 1.00e-12

  ==> Primary Basis <==

  Basis Set: CC-PVDZ
    Blend: CC-PVDZ
    Number of shells: 135
    Number of basis functions: 281
    Number of Cartesian functions: 295
    Spherical Harmonics?: true
    Max angular momentum: 2

   => Loading Basis Set <=

    Name: (CC-PVDZ AUX)
    Role: JKFIT
    Keyword: DF_BASIS_SCF
    atoms 1-12, 28            entry C          line   121 file /home/maxbuskirk/.conda/envs/psifour/share/psi4/basis/cc-pvdz-jkfit.gbs 
    atoms 13-14, 16-27, 29-31 entry H          line    51 file /home/maxbuskirk/.conda/envs/psifour/share/psi4/basis/cc-pvdz-jkfit.gbs 
    atoms 15                  entry O          line   221 file /home/maxbuskirk/.conda/envs/psifour/share/psi4/basis/cc-pvdz-jkfit.gbs 

  ==> Integral Setup <==

  DFHelper Memory: AOs need 0.705 GiB; user supplied 22.352 GiB. Using in-core AOs.

  ==> MemDFJK: Density-Fitted J/K Matrices <==

    J tasked:                   Yes
    K tasked:                   Yes
    wK tasked:                   No
    OpenMP threads:               1
    Memory [MiB]:             22888
    Algorithm:                 Core
    Schwarz Cutoff:           1E-12
    Mask sparsity (%):      15.8737
    Fitting Condition:        1E-10

   => Auxiliary Basis Set <=

  Basis Set: (CC-PVDZ AUX)
    Blend: CC-PVDZ-JKFIT
    Number of shells: 489
    Number of basis functions: 1371
    Number of Cartesian functions: 1559
    Spherical Harmonics?: true
    Max angular momentum: 3

  Minimum eigenvalue in the overlap matrix is 3.3082090613E-04.
  Reciprocal condition number of the overlap matrix is 4.3964325670E-05.
    Using symmetric orthogonalization.

  ==> Pre-Iterations <==

  SCF Guess: Superposition of Atomic Densities via on-the-fly atomic UHF (no occupation information).

   -------------------------
    Irrep   Nso     Nmo    
   -------------------------
     A        281     281 
   -------------------------
    Total     281     281
   -------------------------

  ==> Iterations <==

                           Total Energy        Delta E     RMS |[F,P]|

   @DF-RHF iter SAD:  -577.35659942920768   -5.77357e+02   0.00000e+00 
   @DF-RHF iter   1:  -576.40068237018704    9.55917e-01   2.06430e-03 DIIS
   @DF-RHF iter   2:  -576.62083366604850   -2.20151e-01   7.54012e-04 DIIS
   @DF-RHF iter   3:  -576.64629225193289   -2.54586e-02   2.45017e-04 DIIS
   @DF-RHF iter   4:  -576.64984552197870   -3.55327e-03   5.86215e-05 DIIS
   @DF-RHF iter   5:  -576.65002738832402   -1.81866e-04   2.27669e-05 DIIS
   @DF-RHF iter   6:  -576.65005976477960   -3.23765e-05   6.85446e-06 DIIS
   @DF-RHF iter   7:  -576.65006421941143   -4.45463e-06   3.02314e-06 DIIS
   @DF-RHF iter   8:  -576.65006528727804   -1.06787e-06   1.14626e-06 DIIS
   @DF-RHF iter   9:  -576.65006555294508   -2.65667e-07   5.38615e-07 DIIS
   @DF-RHF iter  10:  -576.65006560563438   -5.26893e-08   2.64252e-07 DIIS
   @DF-RHF iter  11:  -576.65006562096528   -1.53309e-08   9.77858e-08 DIIS
   @DF-RHF iter  12:  -576.65006562257804   -1.61276e-09   3.25413e-08 DIIS
   @DF-RHF iter  13:  -576.65006562270730   -1.29262e-10   1.02182e-08 DIIS
   @DF-RHF iter  14:  -576.65006562271742   -1.01181e-11   2.89653e-09 DIIS
   @DF-RHF iter  15:  -576.65006562272060   -3.18323e-12   1.11604e-09 DIIS
   @DF-RHF iter  16:  -576.65006562272083   -2.27374e-13   4.75967e-10 DIIS
   @DF-RHF iter  17:  -576.65006562272060    2.27374e-13   2.12676e-10 DIIS
   @DF-RHF iter  18:  -576.65006562271958    1.02318e-12   1.02060e-10 DIIS
   @DF-RHF iter  19:  -576.65006562271935    2.27374e-13   4.25678e-11 DIIS
  Energy and wave function converged.


  ==> Post-Iterations <==

    Orbital Energies [Eh]
    ---------------------

    Doubly Occupied:                                                      

       1A    -20.692398     2A    -11.482426     3A    -11.466305  
       4A    -11.445183     5A    -11.440350     6A    -11.426333  
       7A    -11.395317     8A    -11.394038     9A    -11.384162  
      10A    -11.382452    11A    -11.380564    12A    -11.374267  
      13A    -11.360747    14A    -11.357333    15A     -1.520259  
      16A     -1.444406    17A     -1.281178    18A     -1.227347  
      19A     -1.216173    20A     -1.143270    21A     -1.135572  
      22A     -1.051884    23A     -1.038912    24A     -1.007609  
      25A     -0.974769    26A     -0.955681    27A     -0.930491  
      28A     -0.878271    29A     -0.837306    30A     -0.825337  
      31A     -0.803904    32A     -0.783284    33A     -0.771159  
      34A     -0.764532    35A     -0.757328    36A     -0.746674  
      37A     -0.714822    38A     -0.711576    39A     -0.700376  
      40A     -0.684838    41A     -0.667578    42A     -0.656070  
      43A     -0.646747    44A     -0.636951    45A     -0.632524  
      46A     -0.622868    47A     -0.600342    48A     -0.585538  
      49A     -0.574088    50A     -0.461863    51A     -0.437177  

    Virtual:                                                              

      52A     -0.032930    53A     -0.000289    54A      0.014369  
      55A      0.021579    56A      0.033555    57A      0.049772  
      58A      0.055901    59A      0.079320    60A      0.092623  
      61A      0.096002    62A      0.102370    63A      0.112301  
      64A      0.123131    65A      0.137337    66A      0.143258  
      67A      0.149549    68A      0.162499    69A      0.169396  
      70A      0.180078    71A      0.183341    72A      0.192724  
      73A      0.211700    74A      0.226894    75A      0.238269  
      76A      0.239366    77A      0.251677    78A      0.269420  
      79A      0.297466    80A      0.318897    81A      0.324243  
      82A      0.348277    83A      0.354942    84A      0.362292  
      85A      0.385832    86A      0.396433    87A      0.436613  
      88A      0.446927    89A      0.473465    90A      0.490909  
      91A      0.503758    92A      0.506779    93A      0.528312  
      94A      0.533222    95A      0.536015    96A      0.540030  
      97A      0.568207    98A      0.572221    99A      0.585608  
     100A      0.592549   101A      0.600531   102A      0.611877  
     103A      0.624052   104A      0.629251   105A      0.635958  
     106A      0.644934   107A      0.658511   108A      0.666654  
     109A      0.671750   110A      0.683422   111A      0.688411  
     112A      0.693176   113A      0.701685   114A      0.706969  
     115A      0.711600   116A      0.719326   117A      0.727089  
     118A      0.737216   119A      0.746320   120A      0.750394  
     121A      0.752277   122A      0.753029   123A      0.768439  
     124A      0.773618   125A      0.781872   126A      0.786903  
     127A      0.796939   128A      0.799834   129A      0.821707  
     130A      0.824323   131A      0.826738   132A      0.841193  
     133A      0.863606   134A      0.877262   135A      0.912489  
     136A      0.925555   137A      0.937652   138A      0.977931  
     139A      0.990579   140A      1.012611   141A      1.025953  
     142A      1.037021   143A      1.045212   144A      1.069926  
     145A      1.105453   146A      1.111796   147A      1.119893  
     148A      1.121470   149A      1.133118   150A      1.139573  
     151A      1.155522   152A      1.172261   153A      1.187248  
     154A      1.199501   155A      1.222860   156A      1.236779  
     157A      1.247681   158A      1.253018   159A      1.278268  
     160A      1.291251   161A      1.315305   162A      1.331547  
     163A      1.341739   164A      1.366375   165A      1.380646  
     166A      1.395886   167A      1.438784   168A      1.450720  
     169A      1.465864   170A      1.497920   171A      1.506303  
     172A      1.521894   173A      1.550172   174A      1.559905  
     175A      1.576707   176A      1.606028   177A      1.606182  
     178A      1.613341   179A      1.624756   180A      1.635563  
     181A      1.652916   182A      1.659663   183A      1.670303  
     184A      1.681239   185A      1.688760   186A      1.699105  
     187A      1.709650   188A      1.730797   189A      1.734983  
     190A      1.749764   191A      1.758145   192A      1.764955  
     193A      1.770121   194A      1.770875   195A      1.777430  
     196A      1.785862   197A      1.796802   198A      1.802525  
     199A      1.823117   200A      1.827365   201A      1.835196  
     202A      1.845112   203A      1.845843   204A      1.859966  
     205A      1.861938   206A      1.867079   207A      1.884869  
     208A      1.891428   209A      1.895281   210A      1.912480  
     211A      1.936378   212A      1.941602   213A      1.944450  
     214A      1.958804   215A      1.968778   216A      1.986099  
     217A      2.002306   218A      2.020428   219A      2.024540  
     220A      2.051885   221A      2.066335   222A      2.078666  
     223A      2.090773   224A      2.102198   225A      2.113254  
     226A      2.120404   227A      2.129146   228A      2.146296  
     229A      2.152588   230A      2.177039   231A      2.184472  
     232A      2.212687   233A      2.233818   234A      2.238185  
     235A      2.263842   236A      2.268419   237A      2.276867  
     238A      2.297098   239A      2.300567   240A      2.303363  
     241A      2.324160   242A      2.350227   243A      2.368218  
     244A      2.393866   245A      2.410812   246A      2.418870  
     247A      2.434688   248A      2.444698   249A      2.477033  
     250A      2.511221   251A      2.534091   252A      2.561973  
     253A      2.587436   254A      2.599949   255A      2.610253  
     256A      2.639392   257A      2.652602   258A      2.676859  
     259A      2.678433   260A      2.707854   261A      2.720953  
     262A      2.723492   263A      2.746552   264A      2.764999  
     265A      2.796642   266A      2.810609   267A      2.827459  
     268A      2.835681   269A      2.876472   270A      2.913103  
     271A      2.939200   272A      2.998479   273A      3.071361  
     274A      3.117591   275A      3.186967   276A      3.284094  
     277A      3.372550   278A      3.503287   279A      3.549273  
     280A      3.649006   281A      3.878963  

    Final Occupation by Irrep:
              A 
    DOCC [    51 ]

  @DF-RHF Final Energy:  -576.65006562271935

   => Energetics <=

    Nuclear Repulsion Energy =            881.2839164979064890
    One-Electron Energy =               -2515.0467992401017909
    Two-Electron Energy =                1057.1128171194759489
    Total Energy =                       -576.6500656227194668

Computation Completed


Properties will be evaluated at   0.000000,   0.000000,   0.000000 [a0]

Properties computed using the SCF density matrix

  Nuclear Dipole Moment: [e a0]
     X:     9.8730      Y:     3.0756      Z:    -4.3244

  Electronic Dipole Moment: [e a0]
     X:    -6.5221      Y:    -2.5281      Z:     2.2802

  Dipole Moment: [e a0]
     X:     3.3509      Y:     0.5475      Z:    -2.0442     Total:     3.9632

  Dipole Moment: [D]
     X:     8.5171      Y:     1.3917      Z:    -5.1959     Total:    10.0735


*** tstop() called on skystd37.palmetto.clemson.edu at Fri Oct  1 19:38:55 2021
Module time:
	user time   =      20.04 seconds =       0.33 minutes
	system time =       0.90 seconds =       0.02 minutes
	total time  =         21 seconds =       0.35 minutes
Total time:
	user time   =      20.04 seconds =       0.33 minutes
	system time =       0.90 seconds =       0.02 minutes
	total time  =         21 seconds =       0.35 minutes

*** tstart() called on skystd37.palmetto.clemson.edu
*** at Fri Oct  1 19:38:55 2021


  //>>>>>>>>>>>>>>>>>>>>>>>>>>>>>>>>>>>//
  //               DFMP2               //
  //<<<<<<<<<<<<<<<<<<<<<<<<<<<<<<<<<<<//

   => Loading Basis Set <=

    Name: (CC-PVDZ AUX)
    Role: RIFIT
    Keyword: DF_BASIS_MP2
    atoms 1-12, 28            entry C          line   159 file /home/maxbuskirk/.conda/envs/psifour/share/psi4/basis/cc-pvdz-ri.gbs 
    atoms 13-14, 16-27, 29-31 entry H          line    19 file /home/maxbuskirk/.conda/envs/psifour/share/psi4/basis/cc-pvdz-ri.gbs 
    atoms 15                  entry O          line   235 file /home/maxbuskirk/.conda/envs/psifour/share/psi4/basis/cc-pvdz-ri.gbs 

	 --------------------------------------------------------
	                          DF-MP2                         
	      2nd-Order Density-Fitted Moller-Plesset Theory     
	              RMP2 Wavefunction,   1 Threads             
	                                                         
	        Rob Parrish, Justin Turney, Andy Simmonett,      
	           Ed Hohenstein, and C. David Sherrill          
	 --------------------------------------------------------

   => Auxiliary Basis Set <=

  Basis Set: (CC-PVDZ AUX)
    Blend: CC-PVDZ-RI
    Number of shells: 354
    Number of basis functions: 1022
    Number of Cartesian functions: 1179
    Spherical Harmonics?: true
    Max angular momentum: 3

	 --------------------------------------------------------
	                 NBF =   281, NAUX =  1022
	 --------------------------------------------------------
	   CLASS    FOCC     OCC    AOCC    AVIR     VIR    FVIR
	   PAIRS       0      51      51     230     230       0
	 --------------------------------------------------------

  DFHelper Memory: AOs need 0.705 GiB; user supplied 22.352 GiB. Using in-core AOs.


         ------------------------------------------------------------
                                     CPHF                           
                                  Rob Parrish                       
         ------------------------------------------------------------

  ==> Geometry <==

    Molecular point group: c1
    Full point group: C1

    Geometry (in Angstrom), charge = 1, multiplicity = 1:

       Center              X                  Y                   Z               Mass       
    ------------   -----------------  -----------------  -----------------  -----------------
         C            3.602803490309     0.611110666153     0.700078227491    12.000000000000
         C            2.339348490309     1.441205666153     0.398689227491    12.000000000000
         C            1.511248490309     0.559300666153    -0.554845772509    12.000000000000
         C            1.866378490309     0.670521666153    -2.022257772509    12.000000000000
         C            2.494804490309    -0.429045333847    -1.188355772509    12.000000000000
         C            3.882201490309    -0.163692333847    -0.604208772509    12.000000000000
         C            0.137672490309     0.146079666153    -0.140397772509    12.000000000000
         C           -0.031543509691    -0.762266333847     0.925699227491    12.000000000000
         C           -1.313810509691    -1.133033333847     1.357024227491    12.000000000000
         C           -2.450424509691    -0.599998333847     0.725067227491    12.000000000000
         C           -2.294404509691     0.305364666153    -0.336626772509    12.000000000000
         C           -1.008587509691     0.676692666153    -0.762852772509    12.000000000000
         H           -0.887183509691     1.388598666153    -1.585656772509     1.007825032230
         H           -3.175170509691     0.725023666153    -0.832506772509     1.007825032230
         O           -3.712951509691    -0.967521333847     1.143820227491    15.994914619570
         H           -1.427932509691    -1.843194333847     2.181884227491     1.007825032230
         H            0.854548490309    -1.187677333847     1.409624227491     1.007825032230
         H            1.105508490309     0.371132666153    -2.748610772509     1.007825032230
         H            2.507694490309     1.502576666153    -2.332067772509     1.007825032230
         H            3.367736490309    -0.113650333847     1.499780227491     1.007825032230
         H            4.456792490309     1.220532666153     1.041267227491     1.007825032230
         H            4.433037490309    -1.099883333847    -0.420746772509     1.007825032230
         H            4.490931490309     0.443964666153    -1.297625772509     1.007825032230
         H            2.170685490309    -1.455760333847    -1.382841772509     1.007825032230
         H            1.767879490309     1.681833666153     1.309022227491     1.007825032230
         H            2.603595490309     2.397071666153    -0.088786772509     1.007825032230
         H            3.047294490309    -0.331688333847    -1.865423772509     1.007825032230
         C           -4.672752509691    -0.308574333847     0.366279227491    12.000000000000
         H           -5.669050509691    -0.598598333847     0.696729227491     1.007825032230
         H           -4.552695509691     0.768114666153     0.476947227491     1.007825032230
         H           -4.543100509691    -0.582674333847    -0.679656772509     1.007825032230

  Nuclear repulsion =  881.283916497906489
  Reference energy  = -576.650065622719353

  ==> Basis Set <==

  Basis Set: CC-PVDZ
    Blend: CC-PVDZ
    Number of shells: 135
    Number of basis functions: 281
    Number of Cartesian functions: 295
    Spherical Harmonics?: true
    Max angular momentum: 2

  ==> CGRSolver (by Rob Parrish) <==

   Number of roots    =         1
   Preconditioning    =    JACOBI
   Convergence cutoff =     1E-06
   Maximum iterations =       100

  ==> CPHFRHamiltonian (by Rob Parrish) <== 

  ==> MemDFJK: Density-Fitted J/K Matrices <==

    J tasked:                   Yes
    K tasked:                   Yes
    wK tasked:                   No
    OpenMP threads:               1
    Memory [MiB]:             22888
    Algorithm:                 Core
    Schwarz Cutoff:           1E-12
    Mask sparsity (%):      15.8737
    Fitting Condition:        1E-10

   => Auxiliary Basis Set <=

  Basis Set: (CC-PVDZ AUX)
    Blend: CC-PVDZ-JKFIT
    Number of shells: 489
    Number of basis functions: 1371
    Number of Cartesian functions: 1559
    Spherical Harmonics?: true
    Max angular momentum: 3

  ==> CPHF Iterations <==

  => Iterations <=

             Iter  Converged  Remaining    Residual
  CGR           1          0          1   1.214E-01
  CGR           2          0          1   2.730E-02
  CGR           3          0          1   1.561E-02
  CGR           4          0          1   5.775E-03
  CGR           5          0          1   3.081E-03
  CGR           6          0          1   1.234E-03
  CGR           7          0          1   4.351E-04
  CGR           8          0          1   1.392E-04
  CGR           9          0          1   4.646E-05
  CGR          10          0          1   1.490E-05
  CGR          11          0          1   4.629E-06
  CGR          12          0          1   1.670E-06
  CGR          13          1          0   6.909E-07

    CGRSolver converged.

  ==> DFCorrGrad: Density-Fitted Correlated Gradients <==

    OpenMP threads:              1
    Integrals threads:           1
    Memory [GiB]:           22.352
    Schwarz Cutoff:          0E+00
    Fitting Condition:       1E-10

   => Auxiliary Basis Set <=

  Basis Set: (CC-PVDZ AUX)
    Blend: CC-PVDZ-JKFIT
    Number of shells: 489
    Number of basis functions: 1371
    Number of Cartesian functions: 1559
    Spherical Harmonics?: true
    Max angular momentum: 3

	-----------------------------------------------------------
	 ==================> DF-MP2 Energies <==================== 
	-----------------------------------------------------------
	 Reference Energy          =    -576.6500656227193531 [Eh]
	 Singles Energy            =      -0.0000000000000000 [Eh]
	 Same-Spin Energy          =      -0.5191131934289314 [Eh]
	 Opposite-Spin Energy      =      -1.4703701423461963 [Eh]
	 Correlation Energy        =      -1.9894833357751276 [Eh]
	 Total Energy              =    -578.6395489584945153 [Eh]
	-----------------------------------------------------------
	 ================> DF-SCS-MP2 Energies <================== 
	-----------------------------------------------------------
	 SCS Same-Spin Scale       =       0.3333333333333333 [-]
	 SCS Opposite-Spin Scale   =       1.2000000000000000 [-]
	 SCS Same-Spin Energy      =      -0.1730377311429771 [Eh]
	 SCS Opposite-Spin Energy  =      -1.7644441708154355 [Eh]
	 SCS Correlation Energy    =      -1.9374819019584126 [Eh]
	 SCS Total Energy          =    -578.5875475246778024 [Eh]
	-----------------------------------------------------------


  -Total Gradient:
     Atom            X                  Y                   Z
    ------   -----------------  -----------------  -----------------
       1        0.004410972157    -0.003574531622    -0.006310067502
       2       -0.008748278422    -0.000904184166    -0.001934189471
       3        0.007420261355    -0.034874228282     0.020405755047
       4        0.055187388097    -0.051068106881    -0.006095904231
       5        0.160092873105     0.105107337975    -0.219882838595
       6       -0.036074303558    -0.006295443658    -0.045619945505
       7        0.000040372372     0.010232503667     0.005103107864
       8        0.002805347324     0.000816288753    -0.002009841164
       9       -0.007285212215     0.003800995792    -0.004288683515
      10        0.019867710105     0.003178538126    -0.003383678196
      11       -0.010368134135    -0.008891383568     0.008980821119
      12       -0.004975482537     0.000636103506     0.001822533364
      13        0.002200458944    -0.000759193982     0.000145552173
      14       -0.012519879352    -0.001018286870     0.000698802358
      15       -0.034393828111     0.002892656004    -0.003778867625
      16        0.001888449373    -0.000727599455     0.000882087690
      17        0.001614257024     0.001321705355    -0.001927021458
      18       -0.002923649932     0.006678221968     0.000554488337
      19       -0.006390354137     0.004990934471    -0.001470811240
      20       -0.001096075545     0.000533873145     0.001534440777
      21        0.000233230167     0.001698007850     0.002429125171
      22        0.003144315434     0.000738403378     0.002852652217
      23        0.001252402582    -0.000388883486     0.000553582760
      24        0.006419498298     0.001531238960    -0.011406743110
      25        0.000469082504     0.001881591742     0.002493795097
      26        0.001175546232     0.001200776104     0.000363926467
      27       -0.177088058396    -0.036747778903     0.256675739546
      28        0.020212456607     0.001006876289    -0.001078568166
      29        0.002661166921     0.004512762065    -0.005239819804
      30        0.005380566340    -0.009253621050    -0.000222536599
      31        0.005386901403     0.001744426778     0.009153106191


*** tstop() called on skystd37.palmetto.clemson.edu at Fri Oct  1 19:40:33 2021
Module time:
	user time   =      93.26 seconds =       1.55 minutes
	system time =       4.28 seconds =       0.07 minutes
	total time  =         98 seconds =       1.63 minutes
Total time:
	user time   =     113.30 seconds =       1.89 minutes
	system time =       5.18 seconds =       0.09 minutes
	total time  =        119 seconds =       1.98 minutes

			-----------------------------------------
			 OPTKING 2.0: for geometry optimizations 
			  - R.A. King,  Bethel University        
			-----------------------------------------

	Internal coordinates to be generated automatically.
	Detected frag 1 with atoms:  1 2 3 4 5 6 7 8 9 10 11 12 13 14 15 16 17 18 19 20
	 21 22 23 24 25 26 27 28 29 30 31
	---Fragment 1 Bond Connectivity---
	 1 : 2 6 20 21
	 2 : 1 3 25 26
	 3 : 2 4 5 7
	 4 : 3 5 18 19
	 5 : 3 4 6 24 27
	 6 : 1 5 22 23
	 7 : 3 8 12
	 8 : 7 9 17
	 9 : 8 10 16
	 10 : 9 11 15
	 11 : 10 12 14
	 12 : 7 11 13
	 13 : 12
	 14 : 11
	 15 : 10 28
	 16 : 9
	 17 : 8
	 18 : 4
	 19 : 4
	 20 : 1
	 21 : 1
	 22 : 6
	 23 : 6
	 24 : 5
	 25 : 2
	 26 : 2
	 27 : 5
	 28 : 15 29 30 31
	 29 : 28
	 30 : 28
	 31 : 28

	---Fragment 1 Geometry and Gradient---
	 C           6.8083118805        1.1548317914        1.3229561164
	 C           4.4207279587        2.7234839995        0.7534134491
	 C           2.8558457542        1.0569250808       -1.0485065519
	 C           3.5269441931        1.2671023102       -3.8215133451
	 C           4.7144972232       -0.8107781764       -2.2456669496
	 C           7.3362975805       -0.3093336798       -1.1417891026
	 C           0.2601633017        0.2760505615       -0.2653133387
	 C          -0.0596085944       -1.4404746056        1.7493180145
	 C          -2.4827420441       -2.1411226920        2.5644041356
	 C          -4.6306312144       -1.1338325267        1.3701784825
	 C          -4.3357961443        0.5770555874       -0.6361324065
	 C          -1.9059541669        1.2787638101       -1.4415828141
	 H          -1.6765338563        2.6240711772       -2.9964570290
	 H          -6.0002026649        1.3700961635       -1.5732097976
	 O          -7.0164614704       -1.8283503415        2.1615069667
	 H          -2.6984013690       -3.4831324870        4.1231636274
	 H           1.6148626076       -2.2443848864        2.6638037298
	 H           2.0891082761        0.7013390952       -5.1941215855
	 H           4.7388557930        2.8394583815       -4.4069693960
	 H           6.3640996294       -0.2147680050        2.8341738783
	 H           8.4221172047        2.3064724662        1.9677098834
	 H           8.3772267606       -2.0784782709       -0.7950961682
	 H           8.4866305649        0.8389716284       -2.4521573234
	 H           4.1020010812       -2.7509883353       -2.6131922249
	 H           3.3408080595        3.1782050176        2.4736935021
	 H           4.9200824182        4.5298089521       -0.1677826836
	 H           5.7585520103       -0.6268001100       -3.5251400380
	 C          -8.8302224954       -0.5831209803        0.6921674254
	 H         -10.7129528547       -1.1311869101        1.3166274236
	 H          -8.6033476459        1.4515263520        0.9012996363
	 H          -8.5852157237       -1.1010949113       -1.2843651594
	             0.0044109722       -0.0035745316       -0.0063100675
	            -0.0087482784       -0.0009041842       -0.0019341895
	             0.0074202614       -0.0348742283        0.0204057550
	             0.0551873881       -0.0510681069       -0.0060959042
	             0.1600928731        0.1051073380       -0.2198828386
	            -0.0360743036       -0.0062954437       -0.0456199455
	             0.0000403724        0.0102325037        0.0051031079
	             0.0028053473        0.0008162888       -0.0020098412
	            -0.0072852122        0.0038009958       -0.0042886835
	             0.0198677101        0.0031785381       -0.0033836782
	            -0.0103681341       -0.0088913836        0.0089808211
	            -0.0049754825        0.0006361035        0.0018225334
	             0.0022004589       -0.0007591940        0.0001455522
	            -0.0125198794       -0.0010182869        0.0006988024
	            -0.0343938281        0.0028926560       -0.0037788676
	             0.0018884494       -0.0007275995        0.0008820877
	             0.0016142570        0.0013217054       -0.0019270215
	            -0.0029236499        0.0066782220        0.0005544883
	            -0.0063903541        0.0049909345       -0.0014708112
	            -0.0010960755        0.0005338731        0.0015344408
	             0.0002332302        0.0016980078        0.0024291252
	             0.0031443154        0.0007384034        0.0028526522
	             0.0012524026       -0.0003888835        0.0005535828
	             0.0064194983        0.0015312390       -0.0114067431
	             0.0004690825        0.0018815917        0.0024937951
	             0.0011755462        0.0012007761        0.0003639265
	            -0.1770880584       -0.0367477789        0.2566757395
	             0.0202124566        0.0010068763       -0.0010785682
	             0.0026611669        0.0045127621       -0.0052398198
	             0.0053805663       -0.0092536210       -0.0002225366
	             0.0053869014        0.0017444268        0.0091531062

	Previous optimization step data not found.  Starting new optimization.

	---Fragment 1 Intrafragment Coordinates---
	 - Coordinate -           - BOHR/RAD -       - ANG/DEG -
	 R(1,2)           =         2.913006	       1.541497
	 R(1,6)           =         2.915050	       1.542578
	 R(1,20)          =         2.087321	       1.104562
	 R(1,21)          =         2.084790	       1.103224
	 R(2,3)           =         2.910875	       1.540368
	 R(2,25)          =         2.081433	       1.101447
	 R(2,26)          =         2.088245	       1.105052
	 R(3,4)           =         2.860789	       1.513864
	 R(3,5)           =         2.894148	       1.531517
	 R(3,7)           =         2.821476	       1.493061
	 R(4,5)           =         2.865512	       1.516364
	 R(4,18)          =         2.066764	       1.093684
	 R(4,19)          =         2.069732	       1.095255
	 R(5,6)           =         2.888569	       1.528565
	 R(5,24)          =         2.067521	       1.094085
	 R(5,27)          =         1.661611	       0.879286
	 R(6,22)          =         2.081731	       1.101604
	 R(6,23)          =         2.087806	       1.104820
	 R(7,8)           =         2.665981	       1.410776
	 R(7,12)          =         2.661035	       1.408159
	 R(8,9)           =         2.650820	       1.402754
	 R(8,17)          =         2.070365	       1.095590
	 R(9,10)          =         2.655981	       1.405485
	 R(9,16)          =         2.068147	       1.094416
	 R(10,11)         =         2.653177	       1.404001
	 R(10,15)         =         2.607823	       1.380001
	 R(11,12)         =         2.654294	       1.404592
	 R(11,14)         =         2.068158	       1.094422
	 R(12,13)         =         2.068845	       1.094786
	 R(15,28)         =         2.645616	       1.400000
	 R(28,29)         =         2.057912	       1.089000
	 R(28,30)         =         2.057911	       1.089000
	 R(28,31)         =         2.057913	       1.089001
	 B(1,2,3)         =         1.826944	     104.676198
	 B(1,2,25)        =         1.962002	     112.414409
	 B(1,2,26)        =         1.934839	     110.858094
	 B(1,6,5)         =         1.819262	     104.236043
	 B(1,6,22)        =         1.956931	     112.123910
	 B(1,6,23)        =         1.932871	     110.745342
	 B(2,1,6)         =         1.827213	     104.691617
	 B(2,1,20)        =         1.897014	     108.690913
	 B(2,1,21)        =         1.979545	     113.419580
	 B(2,3,4)         =         2.017351	     115.585685
	 B(2,3,5)         =         1.854886	     106.277162
	 B(2,3,7)         =         2.072817	     118.763664
	 B(3,2,25)        =         1.936680	     110.963570
	 B(3,2,26)        =         1.929130	     110.530986
	 B(3,4,5)         =         1.059720	      60.717500
	 B(3,4,18)        =         2.049292	     117.415782
	 B(3,4,19)        =         2.057096	     117.862942
	 B(3,5,4)         =         1.039528	      59.560564
	 B(3,5,6)         =         1.888930	     108.227717
	 B(3,5,24)        =         2.081600	     119.266883
	 B(3,5,27)        =         2.279157	     130.586085
	 B(3,7,8)         =         2.092441	     119.888038
	 B(3,7,12)        =         2.119852	     121.458574
	 B(4,3,5)         =         1.042344	      59.721936
	 B(4,3,7)         =         2.100422	     120.345328
	 B(4,5,6)         =         2.049282	     117.415187
	 B(4,5,24)        =         2.048738	     117.384025
	 B(4,5,27)        =         1.324981	      75.915795
	 B(5,3,7)         =         2.125903	     121.805252
	 B(5,4,18)        =         2.043221	     117.067911
	 B(5,4,19)        =         2.053042	     117.630648
	 B(5,6,22)        =         1.949769	     111.713517
	 B(5,6,23)        =         1.934481	     110.837597
	 B(6,1,20)        =         1.897723	     108.731493
	 B(6,1,21)        =         1.980944	     113.499740
	 B(6,5,24)        =         2.094079	     119.981893
	 B(6,5,27)        =         1.271064	      72.826578
	 B(7,8,9)         =         2.108523	     120.809467
	 B(7,8,17)        =         2.079202	     119.129487
	 B(7,12,11)       =         2.107639	     120.758819
	 B(7,12,13)       =         2.079425	     119.142292
	 B(8,7,12)        =         2.070330	     118.621159
	 B(8,9,10)        =         2.095249	     120.048921
	 B(8,9,16)        =         2.092759	     119.906259
	 B(9,8,17)        =         2.095393	     120.057181
	 B(9,10,11)       =         2.088291	     119.650243
	 B(9,10,15)       =         2.097186	     120.159918
	 B(10,9,16)       =         2.095155	     120.043517
	 B(10,11,12)      =         2.096327	     120.110679
	 B(10,11,14)      =         2.094932	     120.030779
	 B(10,15,28)      =         1.910633	     109.471181
	 B(11,10,15)      =         2.097705	     120.189615
	 B(11,12,13)      =         2.096116	     120.098614
	 B(12,11,14)      =         2.091924	     119.858405
	 B(15,28,29)      =         1.910633	     109.471185
	 B(15,28,30)      =         1.910634	     109.471281
	 B(15,28,31)      =         1.910634	     109.471237
	 B(18,4,19)       =         2.012474	     115.306264
	 B(20,1,21)       =         1.878938	     107.655190
	 B(22,6,23)       =         1.871758	     107.243849
	 B(24,5,27)       =         1.724570	      98.810586
	 B(25,2,26)       =         1.875161	     107.438837
	 B(29,28,30)      =         1.910634	     109.471277
	 B(29,28,31)      =         1.910632	     109.471158
	 B(30,28,31)      =         1.910633	     109.471186
	 D(1,2,3,4)       =        -1.487484	     -85.226572
	 D(1,2,3,5)       =        -0.375127	     -21.493186
	 D(1,2,3,7)       =         2.100956	     120.375901
	 D(1,6,5,3)       =         0.342659	      19.632931
	 D(1,6,5,4)       =         1.468895	      84.161501
	 D(1,6,5,24)      =        -2.129570	    -122.015351
	 D(1,6,5,27)      =         2.576032	     147.595773
	 D(2,1,6,5)       =        -0.573602	     -32.864999
	 D(2,1,6,22)      =        -2.685602	    -153.873654
	 D(2,1,6,23)      =         1.507600	      86.379143
	 D(2,3,4,5)       =         1.651177	      94.605460
	 D(2,3,4,18)      =        -2.759824	    -158.126276
	 D(2,3,4,19)      =        -0.229547	     -13.152074
	 D(2,3,5,4)       =        -1.928884	    -110.516925
	 D(2,3,5,6)       =         0.019569	       1.121217
	 D(2,3,5,24)      =         2.497380	     143.089359
	 D(2,3,5,27)      =        -1.423665	     -81.570010
	 D(2,3,7,8)       =        -1.201325	     -68.830845
	 D(2,3,7,12)      =         1.903727	     109.075519
	 D(3,2,1,6)       =         0.589407	      33.770540
	 D(3,2,1,20)      =        -1.436065	     -82.280465
	 D(3,2,1,21)      =         2.757968	     158.019943
	 D(3,4,5,6)       =        -1.674893	     -95.964306
	 D(3,4,5,24)      =         1.911561	     109.524357
	 D(3,4,5,27)      =        -2.752926	    -157.731045
	 D(3,5,4,18)      =        -1.882068	    -107.834530
	 D(3,5,4,19)      =         1.887309	     108.134828
	 D(3,5,6,22)      =         2.459428	     140.914841
	 D(3,5,6,23)      =        -1.737450	     -99.548568
	 D(3,7,8,9)       =         3.108309	     178.092997
	 D(3,7,8,17)      =        -0.045760	      -2.621861
	 D(3,7,12,11)     =        -3.110817	    -178.236678
	 D(3,7,12,13)     =         0.027453	       1.572949
	 D(4,3,2,25)      =         2.675187	     153.276932
	 D(4,3,2,26)      =         0.596675	      34.186976
	 D(4,3,5,6)       =         1.948453	     111.638142
	 D(4,3,5,24)      =        -1.856921	    -106.393716
	 D(4,3,5,27)      =         0.505219	      28.946915
	 D(4,3,7,8)       =         2.408854	     138.017151
	 D(4,3,7,12)      =        -0.769280	     -44.076485
	 D(4,5,3,7)       =         1.903190	     109.044759
	 D(4,5,6,22)      =        -2.697521	    -154.556588
	 D(4,5,6,23)      =        -0.611214	     -35.019998
	 D(5,3,2,25)      =        -2.495641	    -142.989682
	 D(5,3,2,26)      =         1.709033	      97.920361
	 D(5,3,4,18)      =         1.872184	     107.268264
	 D(5,3,4,19)      =        -1.880724	    -107.757534
	 D(5,3,7,8)       =         1.168456	      66.947624
	 D(5,3,7,12)      =        -2.009677	    -115.146011
	 D(5,4,3,7)       =        -1.944837	    -111.430967
	 D(5,6,1,20)      =         1.451379	      83.157872
	 D(5,6,1,21)      =        -2.741271	    -157.063259
	 D(6,1,2,25)      =         2.693170	     154.307289
	 D(6,1,2,26)      =        -1.490910	     -85.422842
	 D(6,5,3,7)       =        -2.431542	    -139.317099
	 D(6,5,4,18)      =         2.726225	     156.201164
	 D(6,5,4,19)      =         0.212416	      12.170522
	 D(7,3,2,25)      =        -0.019558	      -1.120595
	 D(7,3,2,26)      =        -2.098070	    -120.210552
	 D(7,3,4,18)      =        -0.072653	      -4.162703
	 D(7,3,4,19)      =         2.457624	     140.811498
	 D(7,3,5,24)      =         0.046269	       2.651043
	 D(7,3,5,27)      =         2.408409	     137.991674
	 D(7,8,9,10)      =         0.001304	       0.074700
	 D(7,8,9,16)      =         3.135653	     179.659684
	 D(7,12,11,10)    =         0.004887	       0.280010
	 D(7,12,11,14)    =        -3.139052	    -179.854428
	 D(8,7,12,11)     =        -0.005315	      -0.304531
	 D(8,7,12,13)     =         3.132955	     179.505096
	 D(8,9,10,11)     =        -0.001796	      -0.102888
	 D(8,9,10,15)     =         3.136800	     179.725411
	 D(9,8,7,12)      =         0.002225	       0.127485
	 D(9,10,11,12)    =        -0.001268	      -0.072650
	 D(9,10,11,14)    =        -3.140510	    -179.937978
	 D(9,10,15,28)    =         3.141593	     180.000000
	 D(10,9,8,17)     =        -3.127697	    -179.203838
	 D(10,11,12,13)   =        -3.133351	    -179.527802
	 D(10,15,28,29)   =         3.141593	     180.000000
	 D(10,15,28,30)   =        -1.047197	     -59.999960
	 D(10,15,28,31)   =         1.047198	      60.000045
	 D(11,10,9,16)    =        -3.136135	    -179.687298
	 D(11,10,15,28)   =        -0.003013	      -0.172655
	 D(12,7,8,17)     =         3.131341	     179.412627
	 D(12,11,10,15)   =        -3.139863	    -179.900897
	 D(13,12,11,14)   =         0.005895	       0.337760
	 D(14,11,10,15)   =         0.004080	       0.233774
	 D(15,10,9,16)    =         0.002461	       0.141001
	 D(16,9,8,17)     =         0.006652	       0.381147
	 D(18,4,5,24)     =         0.029493	       1.689827
	 D(18,4,5,27)     =         1.648192	      94.434426
	 D(19,4,5,24)     =        -2.484316	    -142.340815
	 D(19,4,5,27)     =        -0.865617	     -49.596217
	 D(20,1,2,25)     =         0.667698	      38.256283
	 D(20,1,2,26)     =         2.766803	     158.526152
	 D(20,1,6,22)     =        -0.660621	     -37.850783
	 D(20,1,6,23)     =        -2.750604	    -157.597986
	 D(21,1,2,25)     =        -1.421454	     -81.443309
	 D(21,1,2,26)     =         0.677651	      38.826560
	 D(21,1,6,22)     =         1.429915	      81.928087
	 D(21,1,6,23)     =        -0.660068	     -37.819116
	 D(22,6,5,24)     =        -0.012801	      -0.733441
	 D(22,6,5,27)     =        -1.590384	     -91.122317
	 D(23,6,5,24)     =         2.073506	     118.803150
	 D(23,6,5,27)     =         0.495923	      28.414274

	Current energy   :      -578.6395489585

	Generating empirical Hessian (Schlegel '84) for each fragment.
	Taking PRFO optimization step.
	Maximizing along 1 lowest eigenvalue of Hessian.

 RFO min eigenvalues
 -0.155034 -0.000000 -0.000000 -0.000000 -0.000000 -0.000000 -0.000000 -0.000000
 -0.000000 -0.000000 -0.000000 -0.000000 -0.000000 -0.000000 -0.000000 -0.000000
 -0.000000 -0.000000 -0.000000 -0.000000 -0.000000 -0.000000 -0.000000 -0.000000
 -0.000000 -0.000000 -0.000000 -0.000000 -0.000000 -0.000000 -0.000000 -0.000000
 -0.000000 -0.000000 -0.000000 -0.000000 -0.000000 -0.000000 -0.000000 -0.000000
 -0.000000 -0.000000 -0.000000 -0.000000 -0.000000 -0.000000 -0.000000 -0.000000
 -0.000000 -0.000000 -0.000000 -0.000000 -0.000000 -0.000000 -0.000000 -0.000000
 -0.000000 -0.000000  0.000000  0.000000  0.000000  0.000000  0.000000  0.000000
  0.000000  0.000000  0.000000  0.000000  0.000000  0.000000  0.000000  0.000000
  0.000000  0.000000  0.000000  0.000000  0.000000  0.000000  0.000000  0.000000
  0.000000  0.000000  0.000000  0.000000  0.000000  0.000000  0.000000  0.000000
  0.000000  0.000000  0.000000  0.000000  0.000000  0.000000  0.000000  0.000000
  0.000000  0.000000  0.000000  0.000000  0.000000  0.000000  0.000000  0.000000
  0.000000  0.000000  0.000000  0.000000  0.000000  0.000000  0.000000  0.000000
  0.000000  0.000000  0.000000  0.003289  0.004946  0.005865  0.006303  0.007591
  0.012457  0.014098  0.015743  0.016154  0.017010  0.017273  0.017347  0.017506
  0.017564  0.017607  0.017656  0.018432  0.020633  0.023956  0.029039  0.031206
  0.040585  0.045072  0.049696  0.052576  0.057725  0.058515  0.065226  0.069852
  0.070015  0.072671  0.080732  0.082024  0.082881  0.088431  0.100364  0.100702
  0.102748  0.107483  0.112349  0.159988  0.159996  0.159999  0.160000  0.160000
  0.160000  0.160920  0.169876  0.201193  0.203796  0.220019  0.229757  0.239983
  0.249825  0.249999  0.263922  0.267925  0.271369  0.277428  0.295841  0.304109
  0.331244  0.331305  0.331547  0.331829  0.333291  0.335058  0.335240  0.341746
  0.342124  0.342654  0.343072  0.343270  0.343457  0.343903  0.349284  0.349285
  0.349713  0.407437  0.409425  0.442460  0.445186  0.448831  0.450595  0.457191
  0.491022  0.886369

 RFO max eigenvalues
 -0.000000  0.000000
	Change in coordinate exceeds step limit of    0.50000.
	Scaling displacements by    0.74279
	|RFO target step|  :        0.5000000000
	RFO gradient       :       -0.2303143147
	RFO hessian        :        0.2558335581
	Projected Delta(E) :       -0.0665423701

	Back-transformation to cartesian coordinates...
	Successfully converged to displaced geometry.
	First geometry is closer to target in internal coordinates, so am using that one.
	First geometry has RMS(Delta(q)) = 2.46e-02

	--- Internal Coordinate Step in ANG or DEG, aJ/ANG or AJ/DEG ---
	 ---------------------------------------------------------------------------
	   Coordinate                Previous        Force       Change         New 
	   ----------                --------       ------       ------       ------
	    1 R(1,2)          =      1.541497     0.046449     0.003093     1.544590
	    2 R(1,6)          =      1.542578    -0.010861    -0.001102     1.541476
	    3 R(1,20)         =      1.104562    -0.008188    -0.000123     1.104439
	    4 R(1,21)         =      1.103224    -0.015404    -0.001226     1.101998
	    5 R(2,3)          =      1.540368     0.047327     0.004493     1.544861
	    6 R(2,25)         =      1.101447    -0.018362    -0.001546     1.099900
	    7 R(2,26)         =      1.105052    -0.009551    -0.000598     1.104453
	    8 R(3,4)          =      1.513864    -0.047802    -0.012153     1.501712
	    9 R(3,5)          =      1.531517     0.129199     0.017358     1.548875
	   10 R(3,7)          =      1.493061    -0.046193    -0.004232     1.488829
	   11 R(4,5)          =      1.516364     0.268780     0.034392     1.550755
	   12 R(4,18)         =      1.093684     0.001338     0.000143     1.093827
	   13 R(4,19)         =      1.095255    -0.003838    -0.000040     1.095215
	   14 R(5,6)          =      1.528565     0.326353     0.037457     1.566022
	   15 R(5,24)         =      1.094085     0.010801     0.001304     1.095389
	   16 R(5,27)         =      0.879286     2.578601     0.132771     1.012057
	   17 R(6,22)         =      1.101604    -0.011697    -0.000641     1.100963
	   18 R(6,23)         =      1.104820    -0.001060     0.000527     1.105347
	   19 R(7,8)          =      1.410776    -0.003412    -0.000256     1.410520
	   20 R(7,12)         =      1.408159    -0.035230    -0.002486     1.405673
	   21 R(8,9)          =      1.402754    -0.064814    -0.004845     1.397909
	   22 R(8,17)         =      1.095590     0.000484     0.000541     1.096131
	   23 R(9,10)         =      1.405485     0.036240     0.003152     1.408637
	   24 R(9,16)         =      1.094416    -0.007745    -0.000429     1.093988
	   25 R(10,11)        =      1.404001     0.143335     0.012177     1.416178
	   26 R(10,15)        =      1.380001    -0.000775     0.002506     1.382506
	   27 R(11,12)        =      1.404592    -0.014692    -0.000507     1.404085
	   28 R(11,14)        =      1.094422    -0.077185    -0.006139     1.088283
	   29 R(12,13)        =      1.094786     0.002958     0.000520     1.095306
	   30 R(15,28)        =      1.400000     0.209680     0.048512     1.448511
	   31 R(28,29)        =      1.089000     0.043059     0.037486     1.126486
	   32 R(28,30)        =      1.089000     0.070675     0.019041     1.108041
	   33 R(28,31)        =      1.089001     0.070761     0.019456     1.108457
	   34 B(1,2,3)        =    104.676198     0.000596     0.803514   105.479712
	   35 B(1,2,25)       =    112.414409    -0.000350    -0.618035   111.796374
	   36 B(1,2,26)       =    110.858094     0.000105     0.434604   111.292698
	   37 B(1,6,5)        =    104.236043    -0.000293    -0.189324   104.046719
	   38 B(1,6,22)       =    112.123910     0.000455     0.701400   112.825310
	   39 B(1,6,23)       =    110.745342    -0.000119    -0.230268   110.515074
	   40 B(2,1,6)        =    104.691617     0.000245     0.252124   104.943741
	   41 B(2,1,20)       =    108.690913    -0.000012     0.112285   108.803198
	   42 B(2,1,21)       =    113.419580     0.000002     0.088656   113.508236
	   43 B(2,3,4)        =    115.585685     0.000169     0.575548   116.161233
	   44 B(2,3,5)        =    106.277162    -0.000251    -0.227078   106.050084
	   45 B(2,3,7)        =    118.763664     0.000458     0.494624   119.258288
	   46 B(3,2,25)       =    110.963570    -0.000334    -0.586879   110.376691
	   47 B(3,2,26)       =    110.530986    -0.000161    -0.212363   110.318623
	   48 B(3,4,5)        =     60.717500     0.000064     0.241288    60.958788
	   49 B(3,4,18)       =    117.415782     0.000110     0.209683   117.625465
	   50 B(3,4,19)       =    117.862942    -0.000154    -0.177815   117.685126
	   51 B(3,5,4)        =     59.560564    -0.000903    -1.603669    57.956895
	   52 B(3,5,6)        =    108.227717    -0.000302    -0.715777   107.511941
	   53 B(3,5,24)       =    119.266883     0.000171     0.013335   119.280218
	   54 B(3,5,27)       =    130.586085    -0.000639    -1.247609   129.338477
	   55 B(3,7,8)        =    119.888038     0.000055     0.114894   120.002932
	   56 B(3,7,12)       =    121.458574    -0.000282    -0.347181   121.111393
	   57 B(4,3,5)        =     59.721936     0.000839     1.362381    61.084317
	   58 B(4,3,7)        =    120.345328    -0.000625    -1.012887   119.332440
	   59 B(4,5,6)        =    117.415187     0.000176     0.621389   118.036577
	   60 B(4,5,24)       =    117.384025     0.000216     0.337789   117.721813
	   61 B(4,5,27)       =     75.915795     0.000150     0.060611    75.976406
	   62 B(5,3,7)        =    121.805252    -0.000555    -1.005092   120.800160
	   63 B(5,4,18)       =    117.067911    -0.000176    -0.537430   116.530481
	   64 B(5,4,19)       =    117.630648    -0.000244    -0.605673   117.024975
	   65 B(5,6,22)       =    111.713517    -0.000097    -0.373916   111.339600
	   66 B(5,6,23)       =    110.837597     0.000058    -0.040340   110.797256
	   67 B(6,1,20)       =    108.731493    -0.000062    -0.148475   108.583018
	   68 B(6,1,21)       =    113.499740    -0.000241    -0.399687   113.100054
	   69 B(6,5,24)       =    119.981893     0.000073     0.130983   120.112877
	   70 B(6,5,27)       =     72.826578     0.000729     2.049857    74.876434
	   71 B(7,8,9)        =    120.809467    -0.000031    -0.145249   120.664218
	   72 B(7,8,17)       =    119.129487     0.000238     0.464813   119.594300
	   73 B(7,12,11)      =    120.758819     0.000021     0.023824   120.782643
	   74 B(7,12,13)      =    119.142292     0.000167     0.304870   119.447162
	   75 B(8,7,12)       =    118.621159     0.000225     0.227719   118.848878
	   76 B(8,9,10)       =    120.048921     0.000420     0.622575   120.671496
	   77 B(8,9,16)       =    119.906259    -0.000053    -0.033117   119.873142
	   78 B(9,8,17)       =    120.057181    -0.000207    -0.319100   119.738081
	   79 B(9,10,11)      =    119.650243    -0.000650    -0.815527   118.834716
	   80 B(9,10,15)      =    120.159918    -0.003071    -4.269559   115.890358
	   81 B(10,9,16)      =    120.043517    -0.000367    -0.589075   119.454442
	   82 B(10,11,12)     =    120.110679     0.000015     0.086994   120.197673
	   83 B(10,11,14)     =    120.030779     0.000653     1.151779   121.182558
	   84 B(10,15,28)     =    109.471181     0.006464     8.603715   118.074896
	   85 B(11,10,15)     =    120.189615     0.003721     5.085193   125.274808
	   86 B(11,12,13)     =    120.098614    -0.000188    -0.329428   119.769186
	   87 B(12,11,14)     =    119.858405    -0.000668    -1.238781   118.619625
	   88 B(15,28,29)     =    109.471185    -0.001012    -1.896761   107.574424
	   89 B(15,28,30)     =    109.471281     0.000721     1.766648   111.237929
	   90 B(15,28,31)     =    109.471237     0.000724     1.767112   111.238349
	   91 B(18,4,19)      =    115.306264     0.000256     0.568825   115.875089
	   92 B(20,1,21)      =    107.655190     0.000070     0.098823   107.754013
	   93 B(22,6,23)      =    107.243849    -0.000005     0.118242   107.362091
	   94 B(24,5,27)      =     98.810586     0.000113     0.408336    99.218922
	   95 B(25,2,26)      =    107.438837     0.000135     0.166822   107.605659
	   96 B(29,28,30)     =    109.471277    -0.000188     0.016694   109.487971
	   97 B(29,28,31)     =    109.471158    -0.000192     0.038131   109.509288
	   98 B(30,28,31)     =    109.471186    -0.000052    -1.690835   107.780351
	   99 D(1,2,3,4)      =    -85.226572    -0.000163    -1.564328   -86.790899
	  100 D(1,2,3,5)      =    -21.493186     0.000032    -0.084283   -21.577469
	  101 D(1,2,3,7)      =    120.375901    -0.000126    -1.428803   118.947098
	  102 D(1,6,5,3)      =     19.632931     0.000019    -0.037694    19.595237
	  103 D(1,6,5,4)      =     84.161501    -0.000240    -2.100710    82.060791
	  104 D(1,6,5,24)     =   -122.015351     0.000024     0.727225  -121.288126
	  105 D(1,6,5,27)     =    147.595773    -0.000098    -0.895411   146.700361
	  106 D(2,1,6,5)      =    -32.864999     0.000007    -0.010913   -32.875912
	  107 D(2,1,6,22)     =   -153.873654     0.000020     0.181679  -153.691974
	  108 D(2,1,6,23)     =     86.379143    -0.000029    -0.281281    86.097862
	  109 D(2,3,4,5)      =     94.605460    -0.000009     0.015333    94.620793
	  110 D(2,3,4,18)     =   -158.126276    -0.000063    -0.630841  -158.757117
	  111 D(2,3,4,19)     =    -13.152074     0.000038     0.580062   -12.572012
	  112 D(2,3,5,4)      =   -110.516925    -0.000092    -0.903335  -111.420260
	  113 D(2,3,5,6)      =      1.121217    -0.000036     0.038369     1.159585
	  114 D(2,3,5,24)     =    143.089359    -0.000051    -0.662890   142.426469
	  115 D(2,3,5,27)     =    -81.570010    -0.000170    -1.812147   -83.382158
	  116 D(2,3,7,8)      =    -68.830845     0.000058     0.595989   -68.234856
	  117 D(2,3,7,12)     =    109.075519     0.000049     0.457798   109.533317
	  118 D(3,2,1,6)      =     33.770540     0.000055     0.454057    34.224597
	  119 D(3,2,1,20)     =    -82.280465     0.000044     0.445547   -81.834918
	  120 D(3,2,1,21)     =    158.019943     0.000026     0.185833   158.205775
	  121 D(3,4,5,6)      =    -95.964306     0.000203     2.015434   -93.948872
	  122 D(3,4,5,24)     =    109.524357    -0.000045    -0.686911   108.837446
	  123 D(3,4,5,27)     =   -157.731045    -0.000009    -0.262049  -157.993094
	  124 D(3,5,4,18)     =   -107.834530    -0.000053    -0.561931  -108.396460
	  125 D(3,5,4,19)     =    108.134828    -0.000014     0.126383   108.261211
	  126 D(3,5,6,22)     =    140.914841     0.000091     0.487396   141.402237
	  127 D(3,5,6,23)     =    -99.548568     0.000083     0.362921   -99.185647
	  128 D(3,7,8,9)      =    178.092997    -0.000010    -0.135231   177.957766
	  129 D(3,7,8,17)     =     -2.621861    -0.000007    -0.093096    -2.714957
	  130 D(3,7,12,11)    =   -178.236678     0.000014     0.208323  -178.028356
	  131 D(3,7,12,13)    =      1.572949     0.000002     0.032531     1.605480
	  132 D(4,3,2,25)     =    153.276932    -0.000109    -0.989817   152.287115
	  133 D(4,3,2,26)     =     34.186976    -0.000075    -0.689700    33.497275
	  134 D(4,3,5,6)      =    111.638142     0.000057     0.941704   112.579846
	  135 D(4,3,5,24)     =   -106.393716     0.000042     0.240445  -106.153271
	  136 D(4,3,5,27)     =     28.946915    -0.000077    -0.908812    28.038103
	  137 D(4,3,7,8)      =    138.017151     0.000045     0.305161   138.322312
	  138 D(4,3,7,12)     =    -44.076485     0.000036     0.166970   -43.909515
	  139 D(4,5,3,7)      =    109.044759    -0.000039    -0.245742   108.799016
	  140 D(4,5,6,22)     =   -154.556588    -0.000168    -1.575620  -156.132208
	  141 D(4,5,6,23)     =    -35.019998    -0.000176    -1.700095   -36.720093
	  142 D(5,3,2,25)     =   -142.989682     0.000086     0.490227  -142.499455
	  143 D(5,3,2,26)     =     97.920361     0.000120     0.790344    98.710706
	  144 D(5,3,4,18)     =    107.268264    -0.000054    -0.646174   106.622090
	  145 D(5,3,4,19)     =   -107.757534     0.000047     0.564729  -107.192805
	  146 D(5,3,7,8)      =     66.947624    -0.000078    -0.522218    66.425406
	  147 D(5,3,7,12)     =   -115.146011    -0.000086    -0.660410  -115.806422
	  148 D(5,4,3,7)      =   -111.430967     0.000022     0.293697  -111.137270
	  149 D(5,6,1,20)     =     83.157872     0.000026     0.177561    83.335433
	  150 D(5,6,1,21)     =   -157.063259     0.000001    -0.053419  -157.116678
	  151 D(6,1,2,25)     =    154.307289     0.000005    -0.091695   154.215593
	  152 D(6,1,2,26)     =    -85.422842     0.000007     0.001200   -85.421643
	  153 D(6,5,3,7)      =   -139.317099     0.000017     0.695961  -138.621138
	  154 D(6,5,4,18)     =    156.201164     0.000151     1.453503   157.654667
	  155 D(6,5,4,19)     =     12.170522     0.000190     2.141817    14.312339
	  156 D(7,3,2,25)     =     -1.120595    -0.000072    -0.854292    -1.974888
	  157 D(7,3,2,26)     =   -120.210552    -0.000037    -0.554176  -120.764727
	  158 D(7,3,4,18)     =     -4.162703    -0.000032    -0.352477    -4.515180
	  159 D(7,3,4,19)     =    140.811498     0.000069     0.858426   141.669924
	  160 D(7,3,5,24)     =      2.651043     0.000002    -0.005297     2.645746
	  161 D(7,3,5,27)     =    137.991674    -0.000116    -1.154555   136.837119
	  162 D(7,8,9,10)     =      0.074700    -0.000004    -0.059343     0.015357
	  163 D(7,8,9,16)     =    179.659684     0.000001     0.004861   179.664545
	  164 D(7,12,11,10)   =      0.280010    -0.000007    -0.103439     0.176571
	  165 D(7,12,11,14)   =   -179.854428    -0.000007    -0.105363  -179.959792
	  166 D(8,7,12,11)    =     -0.304531     0.000005     0.069575    -0.234956
	  167 D(8,7,12,13)    =    179.505096    -0.000007    -0.106216   179.398880
	  168 D(8,9,10,11)    =     -0.102888     0.000002     0.026980    -0.075908
	  169 D(8,9,10,15)    =    179.725411     0.000006     0.080693   179.806105
	  170 D(9,8,7,12)     =      0.127485     0.000001     0.011808     0.139293
	  171 D(9,10,11,12)   =     -0.072650     0.000004     0.053552    -0.019098
	  172 D(9,10,11,14)   =   -179.937978     0.000004     0.058798  -179.879181
	  173 D(9,10,15,28)   =    180.000000    -0.000001    -0.012047   179.987953
	  174 D(10,9,8,17)    =   -179.203838    -0.000008    -0.107120  -179.310958
	  175 D(10,11,12,13)  =   -179.527802     0.000005     0.071709  -179.456093
	  176 D(10,15,28,29)  =    180.000000     0.000001     0.029378   180.029378
	  177 D(10,15,28,30)  =    -59.999960    -0.000093    -0.067708   -60.067668
	  178 D(10,15,28,31)  =     60.000045     0.000095     0.100042    60.100087
	  179 D(11,10,9,16)   =   -179.687298    -0.000003    -0.039255  -179.726553
	  180 D(11,10,15,28)  =     -0.172655     0.000002     0.034004    -0.138651
	  181 D(12,7,8,17)    =    179.412627     0.000004     0.053943   179.466570
	  182 D(12,11,10,15)  =   -179.900897     0.000002     0.011817  -179.889080
	  183 D(13,12,11,14)  =      0.337760     0.000005     0.069784     0.407544
	  184 D(14,11,10,15)  =      0.233774     0.000003     0.017063     0.250837
	  185 D(15,10,9,16)   =      0.141001     0.000001     0.014458     0.155459
	  186 D(16,9,8,17)    =      0.381147    -0.000003    -0.042916     0.338231
	  187 D(18,4,5,24)    =      1.689827    -0.000098    -1.248841     0.440986
	  188 D(18,4,5,27)    =     94.434426    -0.000062    -0.823980    93.610446
	  189 D(19,4,5,24)    =   -142.340815    -0.000059    -0.560528  -142.901343
	  190 D(19,4,5,27)    =    -49.596217    -0.000023    -0.135666   -49.731883
	  191 D(20,1,2,25)    =     38.256283    -0.000006    -0.100205    38.156078
	  192 D(20,1,2,26)    =    158.526152    -0.000004    -0.007310   158.518842
	  193 D(20,1,6,22)    =    -37.850783     0.000039     0.370153   -37.480629
	  194 D(20,1,6,23)    =   -157.597986    -0.000011    -0.092807  -157.690793
	  195 D(21,1,2,25)    =    -81.443309    -0.000024    -0.359920   -81.803229
	  196 D(21,1,2,26)    =     38.826560    -0.000023    -0.267025    38.559535
	  197 D(21,1,6,22)    =     81.928087     0.000014     0.139173    82.067260
	  198 D(21,1,6,23)    =    -37.819116    -0.000036    -0.323787   -38.142904
	  199 D(22,6,5,24)    =     -0.733441     0.000096     1.252315     0.518874
	  200 D(22,6,5,27)    =    -91.122317    -0.000026    -0.370322   -91.492638
	  201 D(23,6,5,24)    =    118.803150     0.000089     1.127840   119.930990
	  202 D(23,6,5,27)    =     28.414274    -0.000033    -0.494797    27.919477
	 ---------------------------------------------------------------------------
	Successfully symmetrized geometry.

  ==> Convergence Check <==

  Measures of convergence in internal coordinates in au.
  Criteria marked as inactive (o), active & met (*), and active & unmet ( ).
  --------------------------------------------------------------------------------------------- ~
   Step     Total Energy     Delta E     MAX Force     RMS Force      MAX Disp      RMS Disp    ~
  --------------------------------------------------------------------------------------------- ~
    Convergence Criteria    1.00e-06 *    3.00e-04 *             o    1.20e-03 *             o  ~
  --------------------------------------------------------------------------------------------- ~
      1    -578.63954896   -5.79e+02      3.13e-01      2.40e-02 o    2.51e-01      2.75e-02 o  ~
  ---------------------------------------------------------------------------------------------

	Writing optimization data to binary file.
	Structure for next step:
	Cartesian Geometry (in Angstrom)
	    C     3.6297978803   0.5920332600   0.7375034891
	    C     2.3911145167   1.4473812859   0.3913805240
	    C     1.5518559577   0.5846617154  -0.5771011427
	    C     1.9031274116   0.6919337062  -2.0332051326
	    C     2.5310694683  -0.4475114426  -1.1892881899
	    C     3.9384183989  -0.1993586791  -0.5488092955
	    C     0.1709639236   0.1874094876  -0.1873084310
	    C    -0.0289050574  -0.7195855249   0.8742847158
	    C    -1.3202328576  -1.0693907417   1.2795725563
	    C    -2.4480150507  -0.5234905866   0.6358656974
	    C    -2.2515189387   0.3885200488  -0.4295857811
	    C    -0.9517299019   0.7370396635  -0.8302567135
	    H    -0.8078861354   1.4499417229  -1.6492652465
	    H    -3.0953797068   0.8346712810  -0.9522787453
	    O    -3.6765259908  -0.9404570043   1.1135927691
	    H    -1.4602770607  -1.7783599110   2.1008880116
	    H     0.8378633233  -1.1622857447   1.3784989090
	    H     1.1419008604   0.3979079163  -2.7615878962
	    H     2.5659608564   1.5088197112  -2.3379107117
	    H     3.3573693194  -0.1230619343   1.5338750002
	    H     4.4867146396   1.1845605354   1.0966746710
	    H     4.4616946639  -1.1477301928  -0.3515942289
	    H     4.5782366709   0.3958271723  -1.2256979133
	    H     2.1845067605  -1.4698291415  -1.3754002264
	    H     1.8044999217   1.6979504896   1.2874159237
	    H     2.6816727907   2.3960833795  -0.0937562898
	    H     3.1634842522  -0.3455302589  -1.9728132492
	    C    -4.8684729444  -0.4082045060   0.4857751215
	    H    -5.7585634816  -0.8603682239   1.0075579303
	    H    -4.9097448175   0.6955616382   0.5738177533
	    H    -4.9024455157  -0.6632724837  -0.5924008083
			--------------------------
			 OPTKING Finished Execution 
			--------------------------

    Structure for next step:
    Molecular point group: c1
    Full point group: C1

    Geometry (in Angstrom), charge = 1, multiplicity = 1:

    C            3.616185991310     0.575488012637     0.754688368822
    C            2.377502622917     1.430836041869     0.408565402385
    C            1.538244060624     0.568116467949    -0.559916268061
    C            1.889515515825     0.675388459164    -2.016020263734
    C            2.517457574997    -0.464056694098    -1.172103317750
    C            3.924806511206    -0.215903929550    -0.531624420824
    C            0.157352021044     0.170864238624    -0.170123554835
    C           -0.042516960771    -0.736130777468     0.891469596093
    C           -1.333844766031    -1.085935995580     1.296757438238
    C           -2.461626963584    -0.540035838396     0.653050576785
    C           -2.265130850765     0.371974800664    -0.412400905917
    C           -0.965341808887     0.720494416677    -0.813071839900
    H           -0.821498041798     1.433396478915    -1.632080376084
    H           -3.108991622221     0.818126034533    -0.935093872161
    O           -3.690137908468    -0.957002257736     1.130777650378
    H           -1.473888969665    -1.794905167661     2.118072896719
    H            0.824251423406    -1.178830998972     1.395683791317
    H            1.128288961674     0.381362668186    -2.744403030183
    H            2.552348963295     1.492274467397    -2.320725844068
    H            3.343757429378    -0.139607184525     1.551059883067
    H            4.473102754065     1.168015290379     1.113859552156
    H            4.448082778223    -1.164275447059    -0.334409353371
    H            4.564624785723     0.379281924134    -1.208513041246
    H            2.170894865836    -1.486374397006    -1.358215354947
    H            1.790888025550     1.681405246580     1.304600805597
    H            2.668060898052     2.379538139199    -0.076571413296
    H            3.149872361382    -0.362075509968    -1.955628380116
    C           -4.882084866774    -0.424749757321     0.502960000231
    H           -5.772175407483    -0.876913476974     1.024742811158
    H           -4.923356739983     0.679016391194     0.591002632373
    H           -4.916057438183    -0.679817735999    -0.575215933749


Scratch directory: /tmp/
gradient() will perform analytic gradient computation.

*** tstart() called on skystd37.palmetto.clemson.edu
*** at Fri Oct  1 19:40:33 2021

   => Loading Basis Set <=

    Name: CC-PVDZ
    Role: ORBITAL
    Keyword: BASIS
    atoms 1-12, 28            entry C          line   138 file /home/maxbuskirk/.conda/envs/psifour/share/psi4/basis/cc-pvdz.gbs 
    atoms 13-14, 16-27, 29-31 entry H          line    22 file /home/maxbuskirk/.conda/envs/psifour/share/psi4/basis/cc-pvdz.gbs 
    atoms 15                  entry O          line   198 file /home/maxbuskirk/.conda/envs/psifour/share/psi4/basis/cc-pvdz.gbs 


         ---------------------------------------------------------
                                   SCF
               by Justin Turney, Rob Parrish, Andy Simmonett
                          and Daniel G. A. Smith
                              RHF Reference
                        1 Threads,  30517 MiB Core
         ---------------------------------------------------------

  ==> Geometry <==

    Molecular point group: c1
    Full point group: C1

    Geometry (in Angstrom), charge = 1, multiplicity = 1:

       Center              X                  Y                   Z               Mass       
    ------------   -----------------  -----------------  -----------------  -----------------
         C            3.616185991310     0.575488012637     0.754688368822    12.000000000000
         C            2.377502622917     1.430836041869     0.408565402385    12.000000000000
         C            1.538244060624     0.568116467949    -0.559916268061    12.000000000000
         C            1.889515515825     0.675388459164    -2.016020263734    12.000000000000
         C            2.517457574997    -0.464056694098    -1.172103317750    12.000000000000
         C            3.924806511206    -0.215903929550    -0.531624420824    12.000000000000
         C            0.157352021044     0.170864238624    -0.170123554835    12.000000000000
         C           -0.042516960771    -0.736130777468     0.891469596093    12.000000000000
         C           -1.333844766031    -1.085935995580     1.296757438238    12.000000000000
         C           -2.461626963584    -0.540035838396     0.653050576785    12.000000000000
         C           -2.265130850765     0.371974800664    -0.412400905917    12.000000000000
         C           -0.965341808887     0.720494416677    -0.813071839900    12.000000000000
         H           -0.821498041798     1.433396478915    -1.632080376084     1.007825032230
         H           -3.108991622221     0.818126034533    -0.935093872161     1.007825032230
         O           -3.690137908468    -0.957002257736     1.130777650378    15.994914619570
         H           -1.473888969665    -1.794905167661     2.118072896719     1.007825032230
         H            0.824251423406    -1.178830998972     1.395683791317     1.007825032230
         H            1.128288961674     0.381362668186    -2.744403030183     1.007825032230
         H            2.552348963295     1.492274467397    -2.320725844068     1.007825032230
         H            3.343757429378    -0.139607184525     1.551059883067     1.007825032230
         H            4.473102754065     1.168015290379     1.113859552156     1.007825032230
         H            4.448082778223    -1.164275447059    -0.334409353371     1.007825032230
         H            4.564624785723     0.379281924134    -1.208513041246     1.007825032230
         H            2.170894865836    -1.486374397006    -1.358215354947     1.007825032230
         H            1.790888025550     1.681405246580     1.304600805597     1.007825032230
         H            2.668060898052     2.379538139199    -0.076571413296     1.007825032230
         H            3.149872361382    -0.362075509968    -1.955628380116     1.007825032230
         C           -4.882084866774    -0.424749757321     0.502960000231    12.000000000000
         H           -5.772175407483    -0.876913476974     1.024742811158     1.007825032230
         H           -4.923356739983     0.679016391194     0.591002632373     1.007825032230
         H           -4.916057438183    -0.679817735999    -0.575215933749     1.007825032230

  Running in c1 symmetry.

  Rotational constants: A =      0.06891  B =      0.01080  C =      0.01017 [cm^-1]
  Rotational constants: A =   2065.89106  B =    323.70685  C =    304.84748 [MHz]
  Nuclear repulsion =  872.824319048928942

  Charge       = 1
  Multiplicity = 1
  Electrons    = 102
  Nalpha       = 51
  Nbeta        = 51

  ==> Algorithm <==

  SCF Algorithm Type is DF.
  DIIS enabled.
  MOM disabled.
  Fractional occupation disabled.
  Guess Type is READ.
  Energy threshold   = 1.00e-10
  Density threshold  = 1.00e-10
  Integral threshold = 1.00e-12

  ==> Primary Basis <==

  Basis Set: CC-PVDZ
    Blend: CC-PVDZ
    Number of shells: 135
    Number of basis functions: 281
    Number of Cartesian functions: 295
    Spherical Harmonics?: true
    Max angular momentum: 2

   => Loading Basis Set <=

    Name: (CC-PVDZ AUX)
    Role: JKFIT
    Keyword: DF_BASIS_SCF
    atoms 1-12, 28            entry C          line   121 file /home/maxbuskirk/.conda/envs/psifour/share/psi4/basis/cc-pvdz-jkfit.gbs 
    atoms 13-14, 16-27, 29-31 entry H          line    51 file /home/maxbuskirk/.conda/envs/psifour/share/psi4/basis/cc-pvdz-jkfit.gbs 
    atoms 15                  entry O          line   221 file /home/maxbuskirk/.conda/envs/psifour/share/psi4/basis/cc-pvdz-jkfit.gbs 

   => Loading Basis Set <=

    Name: CC-PVDZ
    Role: ORBITAL
    Keyword: BASIS
    atoms 1-12, 28            entry C          line   138 file /home/maxbuskirk/.conda/envs/psifour/share/psi4/basis/cc-pvdz.gbs 
    atoms 13-14, 16-27, 29-31 entry H          line    22 file /home/maxbuskirk/.conda/envs/psifour/share/psi4/basis/cc-pvdz.gbs 
    atoms 15                  entry O          line   198 file /home/maxbuskirk/.conda/envs/psifour/share/psi4/basis/cc-pvdz.gbs 

  Reading orbitals from file /tmp/8mckantoronald.mol.819768.180.npy, no projection.

  ==> Integral Setup <==

  DFHelper Memory: AOs need 0.703 GiB; user supplied 22.352 GiB. Using in-core AOs.

  ==> MemDFJK: Density-Fitted J/K Matrices <==

    J tasked:                   Yes
    K tasked:                   Yes
    wK tasked:                   No
    OpenMP threads:               1
    Memory [MiB]:             22888
    Algorithm:                 Core
    Schwarz Cutoff:           1E-12
    Mask sparsity (%):      16.2257
    Fitting Condition:        1E-10

   => Auxiliary Basis Set <=

  Basis Set: (CC-PVDZ AUX)
    Blend: CC-PVDZ-JKFIT
    Number of shells: 489
    Number of basis functions: 1371
    Number of Cartesian functions: 1559
    Spherical Harmonics?: true
    Max angular momentum: 3

  Minimum eigenvalue in the overlap matrix is 3.3584274997E-04.
  Reciprocal condition number of the overlap matrix is 4.5742159880E-05.
    Using symmetric orthogonalization.

  ==> Pre-Iterations <==

  SCF Guess: Orbitals guess was supplied from a previous computation.

   -------------------------------------------------------
    Irrep   Nso     Nmo     Nalpha   Nbeta   Ndocc  Nsocc
   -------------------------------------------------------
     A        281     281      51      51      51       0
   -------------------------------------------------------
    Total     281     281      51      51      51       0
   -------------------------------------------------------

  ==> Iterations <==

                           Total Energy        Delta E     RMS |[F,P]|

   @DF-RHF iter   0:  -576.51143639653856   -5.76511e+02   1.64356e-03 
   @DF-RHF iter   1:  -576.71240052486314   -2.00964e-01   3.08100e-04 DIIS
   @DF-RHF iter   2:  -576.71688957043864   -4.48905e-03   1.64138e-04 DIIS
   @DF-RHF iter   3:  -576.71795559152463   -1.06602e-03   4.50308e-05 DIIS
   @DF-RHF iter   4:  -576.71810997635157   -1.54385e-04   1.52707e-05 DIIS
   @DF-RHF iter   5:  -576.71812328359761   -1.33072e-05   3.73211e-06 DIIS
   @DF-RHF iter   6:  -576.71812463817105   -1.35457e-06   1.62416e-06 DIIS
   @DF-RHF iter   7:  -576.71812488594162   -2.47771e-07   6.51616e-07 DIIS
   @DF-RHF iter   8:  -576.71812494462336   -5.86817e-08   3.42864e-07 DIIS
   @DF-RHF iter   9:  -576.71812496459290   -1.99695e-08   1.46782e-07 DIIS
[...]
	  189 D(19,4,5,24)    =   -176.757792    -0.000000    -0.002467  -176.760258
	  190 D(19,4,5,27)    =    -61.795721    -0.000000     0.030885   -61.764836
	  191 D(20,1,2,25)    =     54.422288    -0.000000    -0.048627    54.373661
	  192 D(20,1,2,26)    =    176.727946    -0.000000    -0.059715   176.668231
	  193 D(20,1,6,22)    =    -56.172538    -0.000000    -0.007857   -56.180394
	  194 D(20,1,6,23)    =   -173.517434    -0.000000    -0.009257  -173.526691
	  195 D(21,1,2,25)    =    -60.590699    -0.000000    -0.048230   -60.638928
	  196 D(21,1,2,26)    =     61.714959    -0.000000    -0.059317    61.655642
	  197 D(21,1,6,22)    =     65.774214    -0.000000     0.007193    65.781408
	  198 D(21,1,6,23)    =    -51.570682    -0.000000     0.005793   -51.564889
	  199 D(22,6,5,24)    =     56.290756    -0.000000    -0.035830    56.254926
	  200 D(22,6,5,27)    =    -65.550127    -0.000001    -0.062704   -65.612830
	  201 D(23,6,5,24)    =    173.644162    -0.000000    -0.042882   173.601281
	  202 D(23,6,5,27)    =     51.803280    -0.000001    -0.069756    51.733524
	 ---------------------------------------------------------------------------
	Successfully symmetrized geometry.

  ==> Convergence Check <==

  Measures of convergence in internal coordinates in au.
  Criteria marked as inactive (o), active & met (*), and active & unmet ( ).
  ---------------------------------------------------------------------------------------------
   Step     Total Energy     Delta E     MAX Force     RMS Force      MAX Disp      RMS Disp   
  ---------------------------------------------------------------------------------------------
    Convergence Criteria    1.00e-06 *    3.00e-04 *             o    1.20e-03 *             o
  ---------------------------------------------------------------------------------------------
     48    -578.77556614   -9.04e-07 *    1.63e-04 *    2.30e-05 o    1.89e-03      4.70e-04 o  ~
  ---------------------------------------------------------------------------------------------


  **** Optimization is complete! (in 48 steps) ****

  ==> Optimization Summary <==

  Measures of convergence in internal coordinates in au.
  --------------------------------------------------------------------------------------------------------------- ~
   Step         Total Energy             Delta E       MAX Force       RMS Force        MAX Disp        RMS Disp  ~
  --------------------------------------------------------------------------------------------------------------- ~
      1    -578.639548958495   -578.639548958495      0.31298556      0.02404355      0.25090070      0.02751405  ~
      2    -578.707283826641     -0.067734868146      0.10212875      0.00859994      0.13286105      0.03402856  ~
      3    -578.733394008479     -0.026110181838      0.03616334      0.00386141      0.13487369      0.03385579  ~
      4    -578.746637223924     -0.013243215446      0.01012267      0.00186991      0.14637576      0.03459133  ~
      5    -578.754396530971     -0.007759307046      0.00906386      0.00135561      0.12723490      0.03486107  ~
      6    -578.758613570047     -0.004217039076      0.01998206      0.00164733      0.14532646      0.03475937  ~
      7    -578.762085976908     -0.003472406861      0.02361521      0.00191581      0.13644577      0.03231244  ~
      8    -578.765703302640     -0.003617325732      0.02314632      0.00191959      0.10717614      0.02679843  ~
      9    -578.769023344524     -0.003320041884      0.01987212      0.00178194      0.08857541      0.02398570  ~
     10    -578.772255810888     -0.003232466364      0.01506714      0.00160975      0.16485167      0.03518087  ~
     11    -578.769065150761      0.003190660127      0.01676446      0.00152233      0.17474182      0.03513701  ~
     12    -578.767348220813      0.001716929948      0.01251933      0.00170116      0.15497401      0.03517325  ~
     13    -578.765657627745      0.001690593068      0.00992354      0.00117029      0.08529914      0.02416047  ~
     14    -578.767947265328     -0.002289637583      0.00891504      0.00112836      0.13158280      0.03518026  ~
     15    -578.766224892203      0.001722373125      0.00524196      0.00088016      0.13287415      0.03519670  ~
     16    -578.765149477490      0.001075414713      0.00550537      0.00089144      0.10474815      0.03510841  ~
     17    -578.763128038141      0.002021439348      0.00366000      0.00079620      0.12186033      0.03517229  ~
     18    -578.761018477171      0.002109560971      0.00370825      0.00065797      0.08120788      0.02442489  ~
     19    -578.762826106404     -0.001807629233      0.00337840      0.00068907      0.10701417      0.03516510  ~
     20    -578.761022889723      0.001803216681      0.00290086      0.00062833      0.13272698      0.03516952  ~
     21    -578.759779214284      0.001243675438      0.00348316      0.00057478      0.09227113      0.03280327  ~
     22    -578.761892333121     -0.002113118837      0.00401049      0.00072113      0.14162355      0.03517642  ~
     23    -578.759608323019      0.002284010102      0.00246761      0.00060275      0.20937970      0.03513756  ~
     24    -578.757681522824      0.001926800195      0.00703246      0.00142231      0.22124114      0.03518150  ~
     25    -578.757181292239      0.000500230584      0.00792323      0.00126196      0.12089292      0.03511436  ~
     26    -578.760226921625     -0.003045629385      0.00744447      0.00113632      0.20250549      0.03518806  ~
     27    -578.761051728110     -0.000824806486      0.00536472      0.00096194      0.14816110      0.03515683  ~
     28    -578.763296104862     -0.002244376752      0.00399288      0.00071504      0.12790480      0.03517681  ~
     29    -578.765885357457     -0.002589252595      0.00324839      0.00068299      0.11752206      0.03518127  ~
     30    -578.768650314744     -0.002764957287      0.00266148      0.00069430      0.13060877      0.03518816  ~
     31    -578.770856123676     -0.002205808932      0.00299197      0.00073244      0.10448847      0.03519560  ~
     32    -578.772871271055     -0.002015147379      0.00301171      0.00070670      0.10288987      0.03519145  ~
     33    -578.774342370064     -0.001471099009      0.00293576      0.00053567      0.06823944      0.02165451  ~
     34    -578.774794524669     -0.000452154605      0.00210677      0.00038677      0.03349615      0.00692895  ~
     35    -578.774906845561     -0.000112320893      0.00253260      0.00035218      0.03035806      0.00947012  ~
     36    -578.775028680249     -0.000121834688      0.00212849      0.00032535      0.06376366      0.01182059  ~
     37    -578.775114942778     -0.000086262529      0.00170386      0.00035663      0.04007107      0.00915241  ~
     38    -578.775158889790     -0.000043947012      0.00133204      0.00024780      0.15196299      0.03518248  ~
     39    -578.774695411691      0.000463478099      0.00533018      0.00073254      0.09763933      0.01878286  ~
     40    -578.775236070293     -0.000540658601      0.00155234      0.00032305      0.02284138      0.00480287  ~
     41    -578.775337354852     -0.000101284559      0.00113618      0.00022101      0.07941760      0.01638368  ~
     42    -578.775506233149     -0.000168878297      0.00112269      0.00020706      0.02202067      0.00612993  ~
     43    -578.775541076065     -0.000034842915      0.00064316      0.00014475      0.02598629      0.00738890  ~
     44    -578.775530740986      0.000010335079      0.00107626      0.00017907      0.01443988      0.00354276  ~
     45    -578.775553287040     -0.000022546055      0.00040082      0.00007211      0.01316841      0.00334766  ~
     46    -578.775563072008     -0.000009784968      0.00034997      0.00005426      0.00699083      0.00185856  ~
     47    -578.775565235402     -0.000002163394      0.00021295      0.00003538      0.00301523      0.00070457  ~
     48    -578.775566139209     -0.000000903807      0.00016309      0.00002295      0.00188666      0.00047002  ~
  --------------------------------------------------------------------------------------------------------------- ~

	Writing optimization data to binary file.
	Final energy is   -578.7755661392092
	Final (previous) structure:
	Cartesian Geometry (in Angstrom)
	    C     3.1622565424   0.6072299790   0.9749174616
	    C     2.1302871357   1.7176962582   0.4311761605
	    C     1.3914423257   0.9180542556  -0.5289753440
	    C     2.0443063374   0.5765415553  -1.7797096293
	    C     3.0749247244  -0.5418484121  -1.2528250777
	    C     3.9808699991   0.0476138055  -0.1803755537
	    C     0.1118549751   0.2994225830  -0.1594160983
	    C    -0.0132148870  -0.9502561259   0.4893981695
	    C    -1.2826588033  -1.4435987576   0.7941411647
	    C    -2.4471196816  -0.7154486616   0.4653032414
	    C    -2.3170796617   0.5312592764  -0.1820789567
	    C    -1.0452751212   1.0356551479  -0.4923004168
	    H    -0.9658367030   2.0049743461  -0.9946799932
	    H    -3.1909618203   1.1253383909  -0.4533637441
	    O    -3.6112598567  -1.2961377610   0.8104388808
	    H    -1.4001482214  -2.4076332146   1.2955680761
	    H     0.8655388007  -1.5409315125   0.7588261116
	    H     1.3710980155   0.1219905050  -2.5170279341
	    H     2.6507346336   1.3930689429  -2.1979194211
	    H     2.6015203711  -0.1825518227   1.4995712351
	    H     3.7711288239   1.1391839678   1.7230168180
	    H     4.6532964412  -0.7406046339   0.1999246652
	    H     4.6189384413   0.8373018856  -0.6125897923
	    H     2.5071752772  -1.4078214773  -0.8768140573
	    H     1.5187801705   2.0766361300   1.2681867653
	    H     2.7366439620   2.5106809994  -0.0301277495
	    H     3.6190043459  -0.8653882679  -2.1545236492
	    C    -4.8140813312  -0.5884728988   0.4936246212
	    H    -5.6310167255  -1.2238789347   0.8531083041
	    H    -4.8483974567   0.3846912059   1.0100081311
	    H    -4.9118375431  -0.4414019340  -0.5943548472
	Saving final (previous) structure.
	Cleaning optimization helper files.
			--------------------------
			 OPTKING Finished Execution 
			--------------------------

    Final optimized geometry and variables:
    Molecular point group: c1
    Full point group: C1

    Geometry (in Angstrom), charge = 1, multiplicity = 1:

    C            3.162256554847     0.607229981412     0.974917465408
    C            2.130287144111     1.717696264926     0.431176162179
    C            1.391442331140     0.918054259257    -0.528975346097
    C            2.044306345427     0.576541557592    -1.779709636329
    C            3.074924736522    -0.541848414192    -1.252825082600
    C            3.980870014772     0.047613805714    -0.180375554375
    C            0.111854975520     0.299422584189    -0.159416098940
    C           -0.013214887055    -0.950256129676     0.489398171429
    C           -1.282658808350    -1.443598763323     0.794141167830
    C           -2.447119691232    -0.715448664460     0.465303243230
    C           -2.317079670770     0.531259278442    -0.182078957396
    C           -1.045275125272     1.035655151996    -0.492300418745
    H           -0.965836706812     2.004974353958    -0.994679997101
    H           -3.190961832883     1.125338395275    -0.453363745894
    O           -3.611259870922    -1.296137766050     0.810438883960
    H           -1.400148226864    -2.407633224110     1.295568081173
    H            0.865538804095    -1.540931518603     0.758826114559
    H            1.371098020927     0.121990505520    -2.517027944025
    H            2.650734644048     1.393068948424    -2.197919429726
    H            2.601520381282    -0.182551823446     1.499571240958
    H            3.771128838682     1.139183972236     1.723016824822
    H            4.653296459508    -0.740604636854     0.199924666036
    H            4.618938459464     0.837301888929    -0.612589794684
    H            2.507175287040    -1.407821482883    -0.876814060793
    H            1.518780176504     2.076636138130     1.268186770252
    H            2.736643972716     2.510681009252    -0.030127749643
    H            3.619004360134    -0.865388271280    -2.154523657626
    C           -4.814081350073    -0.588472901075     0.493624623111
    H           -5.631016747595    -1.223878939551     0.853108307470
    H           -4.848397475719     0.384691207404     1.010008135049
    H           -4.911837562455    -0.441401935720    -0.594354849572

	Removing binary optimization data file.
	Cleaning optimization helper files.


Properties will be evaluated at   0.000000,   0.000000,   0.000000 [a0]
OEProp: No title given, name of density matrix used for the following properties is 'DF-MP2 relaxed density'
  Mulliken Charges: (a.u.)
   Center  Symbol    Alpha    Beta     Spin     Total
       1     C     3.05208  3.05208  0.00000 -0.10416
       2     C     2.96901  2.96901  0.00000  0.06199
       3     C     3.04857  3.04857  0.00000 -0.09714
       4     C     2.96898  2.96898  0.00000  0.06204
       5     C     3.05223  3.05223  0.00000 -0.10446
       6     C     3.03225  3.03225  0.00000 -0.06449
       7     C     3.03418  3.03418  0.00000 -0.06836
       8     C     3.01185  3.01185  0.00000 -0.02369
       9     C     2.98906  2.98906  0.00000  0.02189
      10     C     2.91922  2.91922  0.00000  0.16156
      11     C     3.02870  3.02870  0.00000 -0.05740
      12     C     2.98869  2.98869  0.00000  0.02263
      13     H     0.48025  0.48025  0.00000  0.03951
      14     H     0.47045  0.47045  0.00000  0.05910
      15     O     4.14543  4.14543  0.00000 -0.29085
      16     H     0.46890  0.46890  0.00000  0.06219
      17     H     0.48154  0.48154  0.00000  0.03691
      18     H     0.44619  0.44619  0.00000  0.10763
      19     H     0.44804  0.44804  0.00000  0.10393
      20     H     0.45436  0.45436  0.00000  0.09129
      21     H     0.44514  0.44514  0.00000  0.10973
      22     H     0.44998  0.44998  0.00000  0.10003
      23     H     0.46036  0.46036  0.00000  0.07927
      24     H     0.45448  0.45448  0.00000  0.09105
      25     H     0.44615  0.44615  0.00000  0.10769
      26     H     0.44808  0.44808  0.00000  0.10383
      27     H     0.44515  0.44515  0.00000  0.10970
      28     C     2.96787  2.96787  0.00000  0.06425
      29     H     0.45406  0.45406  0.00000  0.09189
      30     H     0.46939  0.46939  0.00000  0.06123
      31     H     0.46938  0.46938  0.00000  0.06123

   Total alpha = 51.00000, Total beta = 51.00000, Total charge =  1.00000

    Molecular point group: c1
    Full point group: C1

    Geometry (in Angstrom), charge = 1, multiplicity = 1:

       Center              X                  Y                   Z               Mass       
    ------------   -----------------  -----------------  -----------------  -----------------
         C            3.162256554847     0.607229981412     0.974917465408    12.000000000000
         C            2.130287144111     1.717696264926     0.431176162179    12.000000000000
         C            1.391442331140     0.918054259257    -0.528975346097    12.000000000000
         C            2.044306345427     0.576541557592    -1.779709636329    12.000000000000
         C            3.074924736522    -0.541848414192    -1.252825082600    12.000000000000
         C            3.980870014772     0.047613805714    -0.180375554375    12.000000000000
         C            0.111854975520     0.299422584189    -0.159416098940    12.000000000000
         C           -0.013214887055    -0.950256129676     0.489398171429    12.000000000000
         C           -1.282658808350    -1.443598763323     0.794141167830    12.000000000000
         C           -2.447119691232    -0.715448664460     0.465303243230    12.000000000000
         C           -2.317079670770     0.531259278442    -0.182078957396    12.000000000000
         C           -1.045275125272     1.035655151996    -0.492300418745    12.000000000000
         H           -0.965836706812     2.004974353958    -0.994679997101     1.007825032230
         H           -3.190961832883     1.125338395275    -0.453363745894     1.007825032230
         O           -3.611259870922    -1.296137766050     0.810438883960    15.994914619570
         H           -1.400148226864    -2.407633224110     1.295568081173     1.007825032230
         H            0.865538804095    -1.540931518603     0.758826114559     1.007825032230
         H            1.371098020927     0.121990505520    -2.517027944025     1.007825032230
         H            2.650734644048     1.393068948424    -2.197919429726     1.007825032230
         H            2.601520381282    -0.182551823446     1.499571240958     1.007825032230
         H            3.771128838682     1.139183972236     1.723016824822     1.007825032230
         H            4.653296459508    -0.740604636854     0.199924666036     1.007825032230
         H            4.618938459464     0.837301888929    -0.612589794684     1.007825032230
         H            2.507175287040    -1.407821482883    -0.876814060793     1.007825032230
         H            1.518780176504     2.076636138130     1.268186770252     1.007825032230
         H            2.736643972716     2.510681009252    -0.030127749643     1.007825032230
         H            3.619004360134    -0.865388271280    -2.154523657626     1.007825032230
         C           -4.814081350073    -0.588472901075     0.493624623111    12.000000000000
         H           -5.631016747595    -1.223878939551     0.853108307470     1.007825032230
         H           -4.848397475719     0.384691207404     1.010008135049     1.007825032230
         H           -4.911837562455    -0.441401935720    -0.594354849572     1.007825032230



  Variable Map:
  ----------------------------------------------------------------------------
  "CURRENT CORRELATION ENERGY"           =>      -1.961838735104
  "CURRENT DIPOLE X"                     =>       5.253936059720
  "CURRENT DIPOLE Y"                     =>       3.029090574364
  "CURRENT DIPOLE Z"                     =>      -1.766279229002
  "CURRENT ENERGY"                       =>    -578.775566139209
  "CURRENT REFERENCE ENERGY"             =>    -576.813727404105
  "CUSTOM SCS-MP2 CORRELATION ENERGY"    =>      -1.915696111778
  "CUSTOM SCS-MP2 TOTAL ENERGY"          =>    -578.729423515883
  "HF TOTAL ENERGY"                      =>    -576.813727404105
  "MP2 CORRELATION ENERGY"               =>      -1.961838735104
  "MP2 DOUBLES ENERGY"                   =>      -1.961838735104
  "MP2 OPPOSITE-SPIN CORRELATION ENERGY" =>      -1.455865230858
  "MP2 SAME-SPIN CORRELATION ENERGY"     =>      -0.505973504246
  "MP2 SINGLES ENERGY"                   =>      -0.000000000000
  "MP2 TOTAL ENERGY"                     =>    -578.775566139209
  "NUCLEAR REPULSION ENERGY"             =>     869.257723087007
  "ONE-ELECTRON ENERGY"                  =>   -2491.346804115312
  "OPTIMIZATION ITERATIONS"              =>      48.000000000000
  "PCM POLARIZATION ENERGY"              =>       0.000000000000
  "PE ENERGY"                            =>       0.000000000000
  "SCF DIPOLE X"                         =>       5.253936059720
  "SCF DIPOLE Y"                         =>       3.029090574364
  "SCF DIPOLE Z"                         =>      -1.766279229002
  "SCF ITERATION ENERGY"                 =>    -576.813727404105
  "SCF ITERATIONS"                       =>      13.000000000000
  "SCF TOTAL ENERGY"                     =>    -576.813727404105
  "SCS-MP2 CORRELATION ENERGY"           =>      -1.915696111778
  "SCS-MP2 TOTAL ENERGY"                 =>    -578.729423515883
  "TWO-ELECTRON ENERGY"                  =>    1045.275353624200



    Psi4 stopped on: Friday, 01 October 2021 09:07PM
    Psi4 wall time for execution: 1:28:41.68

*** Psi4 exiting successfully. Buy a developer a beer!
