
    -----------------------------------------------------------------------
          Psi4: An Open-Source Ab Initio Electronic Structure Package
                               Psi4 1.4 release

                         Git: Rev {HEAD} 9485035 


    D. G. A. Smith, L. A. Burns, A. C. Simmonett, R. M. Parrish,
    M. C. Schieber, R. Galvelis, P. Kraus, H. Kruse, R. Di Remigio,
    A. Alenaizan, A. M. James, S. Lehtola, J. P. Misiewicz, M. Scheurer,
    R. A. Shaw, J. B. Schriber, Y. Xie, Z. L. Glick, D. A. Sirianni,
    J. S. O'Brien, J. M. Waldrop, A. Kumar, E. G. Hohenstein,
    B. P. Pritchard, B. R. Brooks, H. F. Schaefer III, A. Yu. Sokolov,
    K. Patkowski, A. E. DePrince III, U. Bozkaya, R. A. King,
    F. A. Evangelista, J. M. Turney, T. D. Crawford, C. D. Sherrill,
    J. Chem. Phys. 152(18) 184108 (2020). https://doi.org/10.1063/5.0006002

                            Additional Code Authors
    E. T. Seidl, C. L. Janssen, E. F. Valeev, M. L. Leininger,
    J. F. Gonthier, R. M. Richard, H. R. McAlexander, M. Saitow, X. Wang,
    P. Verma, and M. H. Lechner

             Previous Authors, Complete List of Code Contributors,
                       and Citations for Specific Modules
    https://github.com/psi4/psi4/blob/master/codemeta.json
    https://github.com/psi4/psi4/graphs/contributors
    http://psicode.org/psi4manual/master/introduction.html#citing-psifour

    -----------------------------------------------------------------------


    Psi4 started on: Thursday, 14 October 2021 08:32PM

    Process ID: 387459
    Host:       skystd05.palmetto.clemson.edu
    PSIDATADIR: /home/maxbuskirk/.conda/envs/psifour/share/psi4
    Memory:     500.0 MiB
    Threads:    1
    
  ==> Input File <==

--------------------------------------------------------------------------
memory 32 GB

molecule mol {
1 1
C    0.00000000  0.00000000  0.00000000
C   -0.35513000 -0.11122100  1.46741200
C    0.47297000  0.77068400  2.42094700
C    1.73642500 -0.05941100  2.72233600
C    2.01582300 -0.83421400  1.41804900
C    0.62842600 -1.09956700  0.83390200
H    0.30430700 -2.12628200  0.63941600
H    2.56665900 -1.77040500  1.60151100
H    2.62455300 -0.22655700  0.72463200
H    1.50135800 -0.78417200  3.52203800
H    2.59041400  0.55001100  3.06352500
H   -0.09849900  1.01131200  3.33128000
H    0.73721700  1.72655000  1.93347100
C   -1.72870600 -0.52444200  1.88186000
C   -1.89792200 -1.43278800  2.94795700
C   -3.18018900 -1.80355500  3.37928200
C   -4.31680300 -1.27052000  2.74732500
C   -4.16078300 -0.36515700  1.68563100
C   -2.87496600  0.00617100  1.25940500
H   -2.75356200  0.71807700  0.43660100
H   -5.04154900  0.05450200  1.18975100
H   -5.31770600 -1.56188400  3.07930300
H   -3.29431100 -2.51371600  4.20414200
H   -1.01183000 -1.85819900  3.43188200
H   -0.76087000 -0.29938900 -0.72635300
H    0.64131600  0.83205500 -0.30981000
H   -0.21220963  0.89249413 -0.59244093
}

set scf_type df
set opt_type ts
set basis cc-pVDZ
set reference rhf
set geom_maxiter 400


mol.update_geometry()
mol.symmetrize(1e-3)

e, wfn = optimize('mp2', return_wfn=True)
oeprop(wfn, "MULLIKEN_CHARGES")
mol.print_out()
print_variables()
--------------------------------------------------------------------------

  Memory set to  29.802 GiB by Python driver.

Scratch directory: /tmp/
gradient() will perform analytic gradient computation.

*** tstart() called on skystd05.palmetto.clemson.edu
*** at Thu Oct 14 20:32:35 2021

   => Loading Basis Set <=

    Name: CC-PVDZ
    Role: ORBITAL
    Keyword: BASIS
    atoms 1-6, 14-19  entry C          line   138 file /home/maxbuskirk/.conda/envs/psifour/share/psi4/basis/cc-pvdz.gbs 
    atoms 7-13, 20-27 entry H          line    22 file /home/maxbuskirk/.conda/envs/psifour/share/psi4/basis/cc-pvdz.gbs 


         ---------------------------------------------------------
                                   SCF
               by Justin Turney, Rob Parrish, Andy Simmonett
                          and Daniel G. A. Smith
                              RHF Reference
                        1 Threads,  30517 MiB Core
         ---------------------------------------------------------

  ==> Geometry <==

    Molecular point group: c1
    Full point group: C1

    Geometry (in Angstrom), charge = 1, multiplicity = 1:

       Center              X                  Y                   Z               Mass       
    ------------   -----------------  -----------------  -----------------  -----------------
         C            1.077907759776     0.541020428307    -1.878474830315    12.000000000000
         C            0.722777759776     0.429799428307    -0.411062830315    12.000000000000
         C            1.550877759776     1.311704428307     0.542472169685    12.000000000000
         C            2.814332759776     0.481609428307     0.843861169685    12.000000000000
         C            3.093730759776    -0.293193571693    -0.460425830315    12.000000000000
         C            1.706333759776    -0.558546571693    -1.044572830315    12.000000000000
         H            1.382214759776    -1.585261571693    -1.239058830315     1.007825032230
         H            3.644566759776    -1.229384571693    -0.276963830315     1.007825032230
         H            3.702460759776     0.314463428307    -1.153842830315     1.007825032230
         H            2.579265759776    -0.243151571693     1.643563169685     1.007825032230
         H            3.668321759776     1.091031428307     1.185050169685     1.007825032230
         H            0.979408759776     1.552332428307     1.452805169685     1.007825032230
         H            1.815124759776     2.267570428307     0.054996169685     1.007825032230
         C           -0.650798240224     0.016578428307     0.003385169685    12.000000000000
         C           -0.820014240224    -0.891767571693     1.069482169685    12.000000000000
         C           -2.102281240224    -1.262534571693     1.500807169685    12.000000000000
         C           -3.238895240224    -0.729499571693     0.868850169685    12.000000000000
         C           -3.082875240224     0.175863428307    -0.192843830315    12.000000000000
         C           -1.797058240224     0.547191428307    -0.619069830315    12.000000000000
         H           -1.675654240224     1.259097428307    -1.441873830315     1.007825032230
         H           -3.963641240224     0.595522428307    -0.688723830315     1.007825032230
         H           -4.239798240224    -1.020863571693     1.200828169685     1.007825032230
         H           -2.216403240224    -1.972695571693     2.325667169685     1.007825032230
         H            0.066077759776    -1.317178571693     1.553407169685     1.007825032230
         H            0.317037759776     0.241631428307    -2.604827830315     1.007825032230
         H            1.719223759776     1.373075428307    -2.188284830315     1.007825032230
         H            0.865698129776     1.433514558307    -2.470915760315     1.007825032230

  Running in c1 symmetry.

  Rotational constants: A =      0.07210  B =      0.02011  C =      0.01806 [cm^-1]
  Rotational constants: A =   2161.38313  B =    602.96396  C =    541.50208 [MHz]
  Nuclear repulsion =  681.180746457651821

  Charge       = 1
  Multiplicity = 1
  Electrons    = 86
  Nalpha       = 43
  Nbeta        = 43

  ==> Algorithm <==

  SCF Algorithm Type is DF.
  DIIS enabled.
  MOM disabled.
  Fractional occupation disabled.
  Guess Type is SAD.
  Energy threshold   = 1.00e-10
  Density threshold  = 1.00e-10
  Integral threshold = 1.00e-12

  ==> Primary Basis <==

  Basis Set: CC-PVDZ
    Blend: CC-PVDZ
    Number of shells: 117
    Number of basis functions: 243
    Number of Cartesian functions: 255
    Spherical Harmonics?: true
    Max angular momentum: 2

   => Loading Basis Set <=

    Name: (CC-PVDZ AUX)
    Role: JKFIT
    Keyword: DF_BASIS_SCF
    atoms 1-6, 14-19  entry C          line   121 file /home/maxbuskirk/.conda/envs/psifour/share/psi4/basis/cc-pvdz-jkfit.gbs 
    atoms 7-13, 20-27 entry H          line    51 file /home/maxbuskirk/.conda/envs/psifour/share/psi4/basis/cc-pvdz-jkfit.gbs 

  ==> Integral Setup <==

  DFHelper Memory: AOs need 0.499 GiB; user supplied 22.352 GiB. Using in-core AOs.

  ==> MemDFJK: Density-Fitted J/K Matrices <==

    J tasked:                   Yes
    K tasked:                   Yes
    wK tasked:                   No
    OpenMP threads:               1
    Memory [MiB]:             22888
    Algorithm:                 Core
    Schwarz Cutoff:           1E-12
    Mask sparsity (%):       8.2372
    Fitting Condition:        1E-10

   => Auxiliary Basis Set <=

  Basis Set: (CC-PVDZ AUX)
    Blend: CC-PVDZ-JKFIT
    Number of shells: 423
    Number of basis functions: 1185
    Number of Cartesian functions: 1347
    Spherical Harmonics?: true
    Max angular momentum: 3

  Minimum eigenvalue in the overlap matrix is 3.2615983658E-04.
  Reciprocal condition number of the overlap matrix is 4.5912134584E-05.
    Using symmetric orthogonalization.

  ==> Pre-Iterations <==

  SCF Guess: Superposition of Atomic Densities via on-the-fly atomic UHF (no occupation information).

   -------------------------
    Irrep   Nso     Nmo    
   -------------------------
     A        243     243 
   -------------------------
    Total     243     243
   -------------------------

  ==> Iterations <==

                           Total Energy        Delta E     RMS |[F,P]|

   @DF-RHF iter SAD:  -463.16360093279309   -4.63164e+02   0.00000e+00 
   @DF-RHF iter   1:  -462.53162722882098    6.31974e-01   2.36846e-03 DIIS
   @DF-RHF iter   2:  -462.74564552670859   -2.14018e-01   9.93638e-04 DIIS
   @DF-RHF iter   3:  -462.77765375826152   -3.20082e-02   2.73401e-04 DIIS
   @DF-RHF iter   4:  -462.78113095815314   -3.47720e-03   6.67780e-05 DIIS
   @DF-RHF iter   5:  -462.78130377916659   -1.72821e-04   2.18585e-05 DIIS
   @DF-RHF iter   6:  -462.78132727023529   -2.34911e-05   6.27004e-06 DIIS
   @DF-RHF iter   7:  -462.78132982429656   -2.55406e-06   2.23510e-06 DIIS
   @DF-RHF iter   8:  -462.78133021414703   -3.89850e-07   8.99000e-07 DIIS
   @DF-RHF iter   9:  -462.78133031086747   -9.67204e-08   3.33242e-07 DIIS
   @DF-RHF iter  10:  -462.78133032681876   -1.59513e-08   1.58466e-07 DIIS
   @DF-RHF iter  11:  -462.78133033056548   -3.74672e-09   6.92358e-08 DIIS
   @DF-RHF iter  12:  -462.78133033141012   -8.44636e-10   2.64827e-08 DIIS
   @DF-RHF iter  13:  -462.78133033151948   -1.09367e-10   8.75843e-09 DIIS
   @DF-RHF iter  14:  -462.78133033153017   -1.06866e-11   3.33933e-09 DIIS
   @DF-RHF iter  15:  -462.78133033152676    3.41061e-12   1.11634e-09 DIIS
   @DF-RHF iter  16:  -462.78133033153017   -3.41061e-12   4.95961e-10 DIIS
   @DF-RHF iter  17:  -462.78133033153000    1.70530e-13   1.77932e-10 DIIS
   @DF-RHF iter  18:  -462.78133033152903    9.66338e-13   7.99534e-11 DIIS
  Energy and wave function converged.


  ==> Post-Iterations <==

    Orbital Energies [Eh]
    ---------------------

    Doubly Occupied:                                                      

       1A    -11.492524     2A    -11.464754     3A    -11.440871  
       4A    -11.395544     5A    -11.391034     6A    -11.387256  
       7A    -11.377115     8A    -11.374997     9A    -11.371048  
      10A    -11.364361    11A    -11.363602    12A    -11.360840  
      13A     -1.407915    14A     -1.274755    15A     -1.249717  
      16A     -1.173943    17A     -1.149663    18A     -1.135016  
      19A     -1.109057    20A     -0.972003    21A     -0.968606  
      22A     -0.950862    23A     -0.916207    24A     -0.875962  
      25A     -0.853751    26A     -0.803525    27A     -0.787429  
      28A     -0.759015    29A     -0.754058    30A     -0.742604  
      31A     -0.721188    32A     -0.704932    33A     -0.677412  
      34A     -0.668802    35A     -0.651807    36A     -0.637922  
      37A     -0.630288    38A     -0.619224    39A     -0.614091  
      40A     -0.608152    41A     -0.582786    42A     -0.457009  
      43A     -0.453216  

    Virtual:                                                              

      44A     -0.071222    45A     -0.025766    46A     -0.000194  
      47A      0.005517    48A      0.025588    49A      0.049855  
      50A      0.073448    51A      0.077166    52A      0.091414  
      53A      0.099588    54A      0.114296    55A      0.120140  
      56A      0.122699    57A      0.136864    58A      0.139602  
      59A      0.154063    60A      0.161768    61A      0.176761  
      62A      0.188291    63A      0.215833    64A      0.216780  
      65A      0.229366    66A      0.259767    67A      0.269813  
      68A      0.305625    69A      0.324420    70A      0.333759  
      71A      0.343435    72A      0.351774    73A      0.365725  
      74A      0.412748    75A      0.426279    76A      0.457267  
      77A      0.467044    78A      0.483877    79A      0.498451  
      80A      0.518613    81A      0.524510    82A      0.535976  
      83A      0.543864    84A      0.564822    85A      0.575011  
      86A      0.580988    87A      0.589730    88A      0.599921  
      89A      0.602726    90A      0.610021    91A      0.615662  
      92A      0.621708    93A      0.633467    94A      0.656735  
      95A      0.666365    96A      0.672173    97A      0.682418  
      98A      0.690158    99A      0.694685   100A      0.700328  
     101A      0.705660   102A      0.713340   103A      0.717355  
     104A      0.741099   105A      0.745377   106A      0.753323  
     107A      0.755286   108A      0.759335   109A      0.764774  
     110A      0.774194   111A      0.778302   112A      0.798351  
     113A      0.800240   114A      0.803322   115A      0.829268  
     116A      0.841899   117A      0.856471   118A      0.879758  
     119A      0.885939   120A      0.970355   121A      0.992923  
     122A      0.999906   123A      1.021313   124A      1.024111  
     125A      1.029952   126A      1.038022   127A      1.070289  
     128A      1.090492   129A      1.117061   130A      1.130621  
     131A      1.138881   132A      1.143251   133A      1.148265  
     134A      1.172331   135A      1.185582   136A      1.205032  
     137A      1.231000   138A      1.256884   139A      1.266989  
     140A      1.285576   141A      1.306854   142A      1.326210  
     143A      1.332890   144A      1.376717   145A      1.396598  
     146A      1.418082   147A      1.440669   148A      1.481099  
     149A      1.491020   150A      1.508369   151A      1.526963  
     152A      1.550284   153A      1.581482   154A      1.588517  
     155A      1.607720   156A      1.629255   157A      1.636082  
     158A      1.642697   159A      1.652945   160A      1.661027  
     161A      1.687510   162A      1.698495   163A      1.708768  
     164A      1.729829   165A      1.740118   166A      1.752043  
     167A      1.758928   168A      1.769580   169A      1.782819  
     170A      1.789939   171A      1.794915   172A      1.805116  
     173A      1.813589   174A      1.820977   175A      1.829061  
     176A      1.831801   177A      1.839872   178A      1.845350  
     179A      1.847886   180A      1.870597   181A      1.878985  
     182A      1.896071   183A      1.899385   184A      1.916221  
     185A      1.933132   186A      1.942766   187A      1.949819  
     188A      1.965471   189A      1.986650   190A      1.994849  
     191A      2.022080   192A      2.028279   193A      2.029007  
     194A      2.041469   195A      2.056612   196A      2.066993  
     197A      2.094631   198A      2.100231   199A      2.117824  
     200A      2.127003   201A      2.131941   202A      2.150015  
     203A      2.166245   204A      2.180281   205A      2.189423  
     206A      2.215131   207A      2.234958   208A      2.246026  
     209A      2.261585   210A      2.284614   211A      2.287282  
     212A      2.315515   213A      2.338021   214A      2.342914  
     215A      2.379947   216A      2.416755   217A      2.439401  
     218A      2.453679   219A      2.516541   220A      2.554486  
     221A      2.565146   222A      2.593227   223A      2.615010  
     224A      2.617499   225A      2.626054   226A      2.633118  
     227A      2.642956   228A      2.649114   229A      2.652893  
     230A      2.712112   231A      2.753783   232A      2.777622  
     233A      2.824269   234A      2.842039   235A      2.855095  
     236A      2.882302   237A      2.945459   238A      2.979792  
     239A      3.035742   240A      3.053348   241A      3.111584  
     242A      3.132426   243A      3.780483  

    Final Occupation by Irrep:
              A 
    DOCC [    43 ]

  @DF-RHF Final Energy:  -462.78133033152903

   => Energetics <=

    Nuclear Repulsion Energy =            681.1807464576518214
    One-Electron Energy =               -1962.5344300703138742
    Two-Electron Energy =                 818.5723532811330188
    Total Energy =                       -462.7813303315290341

Computation Completed


Properties will be evaluated at   0.000000,   0.000000,   0.000000 [a0]

Properties computed using the SCF density matrix

  Nuclear Dipole Moment: [e a0]
     X:     8.1034      Y:     2.5871      Z:    -2.4826

  Electronic Dipole Moment: [e a0]
     X:    -6.4019      Y:    -1.6601      Z:     0.2676

  Dipole Moment: [e a0]
     X:     1.7015      Y:     0.9270      Z:    -2.2149     Total:     2.9429

  Dipole Moment: [D]
     X:     4.3248      Y:     2.3562      Z:    -5.6298     Total:     7.4800


*** tstop() called on skystd05.palmetto.clemson.edu at Thu Oct 14 20:32:51 2021
Module time:
	user time   =      15.08 seconds =       0.25 minutes
	system time =       0.68 seconds =       0.01 minutes
	total time  =         16 seconds =       0.27 minutes
Total time:
	user time   =      15.08 seconds =       0.25 minutes
	system time =       0.68 seconds =       0.01 minutes
	total time  =         16 seconds =       0.27 minutes

*** tstart() called on skystd05.palmetto.clemson.edu
*** at Thu Oct 14 20:32:51 2021


  //>>>>>>>>>>>>>>>>>>>>>>>>>>>>>>>>>>>//
  //               DFMP2               //
  //<<<<<<<<<<<<<<<<<<<<<<<<<<<<<<<<<<<//

   => Loading Basis Set <=

    Name: (CC-PVDZ AUX)
    Role: RIFIT
    Keyword: DF_BASIS_MP2
    atoms 1-6, 14-19  entry C          line   159 file /home/maxbuskirk/.conda/envs/psifour/share/psi4/basis/cc-pvdz-ri.gbs 
    atoms 7-13, 20-27 entry H          line    19 file /home/maxbuskirk/.conda/envs/psifour/share/psi4/basis/cc-pvdz-ri.gbs 

	 --------------------------------------------------------
	                          DF-MP2                         
	      2nd-Order Density-Fitted Moller-Plesset Theory     
	              RMP2 Wavefunction,   1 Threads             
	                                                         
	        Rob Parrish, Justin Turney, Andy Simmonett,      
	           Ed Hohenstein, and C. David Sherrill          
	 --------------------------------------------------------

   => Auxiliary Basis Set <=

  Basis Set: (CC-PVDZ AUX)
    Blend: CC-PVDZ-RI
    Number of shells: 306
    Number of basis functions: 882
    Number of Cartesian functions: 1017
    Spherical Harmonics?: true
    Max angular momentum: 3

	 --------------------------------------------------------
	                 NBF =   243, NAUX =   882
	 --------------------------------------------------------
	   CLASS    FOCC     OCC    AOCC    AVIR     VIR    FVIR
	   PAIRS       0      43      43     200     200       0
	 --------------------------------------------------------

  DFHelper Memory: AOs need 0.499 GiB; user supplied 22.352 GiB. Using in-core AOs.


         ------------------------------------------------------------
                                     CPHF                           
                                  Rob Parrish                       
         ------------------------------------------------------------

  ==> Geometry <==

    Molecular point group: c1
    Full point group: C1

    Geometry (in Angstrom), charge = 1, multiplicity = 1:

       Center              X                  Y                   Z               Mass       
    ------------   -----------------  -----------------  -----------------  -----------------
         C            1.077907759776     0.541020428307    -1.878474830315    12.000000000000
         C            0.722777759776     0.429799428307    -0.411062830315    12.000000000000
         C            1.550877759776     1.311704428307     0.542472169685    12.000000000000
         C            2.814332759776     0.481609428307     0.843861169685    12.000000000000
         C            3.093730759776    -0.293193571693    -0.460425830315    12.000000000000
         C            1.706333759776    -0.558546571693    -1.044572830315    12.000000000000
         H            1.382214759776    -1.585261571693    -1.239058830315     1.007825032230
         H            3.644566759776    -1.229384571693    -0.276963830315     1.007825032230
         H            3.702460759776     0.314463428307    -1.153842830315     1.007825032230
         H            2.579265759776    -0.243151571693     1.643563169685     1.007825032230
         H            3.668321759776     1.091031428307     1.185050169685     1.007825032230
         H            0.979408759776     1.552332428307     1.452805169685     1.007825032230
         H            1.815124759776     2.267570428307     0.054996169685     1.007825032230
         C           -0.650798240224     0.016578428307     0.003385169685    12.000000000000
         C           -0.820014240224    -0.891767571693     1.069482169685    12.000000000000
         C           -2.102281240224    -1.262534571693     1.500807169685    12.000000000000
         C           -3.238895240224    -0.729499571693     0.868850169685    12.000000000000
         C           -3.082875240224     0.175863428307    -0.192843830315    12.000000000000
         C           -1.797058240224     0.547191428307    -0.619069830315    12.000000000000
         H           -1.675654240224     1.259097428307    -1.441873830315     1.007825032230
         H           -3.963641240224     0.595522428307    -0.688723830315     1.007825032230
         H           -4.239798240224    -1.020863571693     1.200828169685     1.007825032230
         H           -2.216403240224    -1.972695571693     2.325667169685     1.007825032230
         H            0.066077759776    -1.317178571693     1.553407169685     1.007825032230
         H            0.317037759776     0.241631428307    -2.604827830315     1.007825032230
         H            1.719223759776     1.373075428307    -2.188284830315     1.007825032230
         H            0.865698129776     1.433514558307    -2.470915760315     1.007825032230

  Nuclear repulsion =  681.180746457651821
  Reference energy  = -462.781330331529034

  ==> Basis Set <==

  Basis Set: CC-PVDZ
    Blend: CC-PVDZ
    Number of shells: 117
    Number of basis functions: 243
    Number of Cartesian functions: 255
    Spherical Harmonics?: true
    Max angular momentum: 2

  ==> CGRSolver (by Rob Parrish) <==

   Number of roots    =         1
   Preconditioning    =    JACOBI
   Convergence cutoff =     1E-06
   Maximum iterations =       100

  ==> CPHFRHamiltonian (by Rob Parrish) <== 

  ==> MemDFJK: Density-Fitted J/K Matrices <==

    J tasked:                   Yes
    K tasked:                   Yes
    wK tasked:                   No
    OpenMP threads:               1
    Memory [MiB]:             22888
    Algorithm:                 Core
    Schwarz Cutoff:           1E-12
    Mask sparsity (%):       8.2372
    Fitting Condition:        1E-10

   => Auxiliary Basis Set <=

  Basis Set: (CC-PVDZ AUX)
    Blend: CC-PVDZ-JKFIT
    Number of shells: 423
    Number of basis functions: 1185
    Number of Cartesian functions: 1347
    Spherical Harmonics?: true
    Max angular momentum: 3

  ==> CPHF Iterations <==

  => Iterations <=

             Iter  Converged  Remaining    Residual
  CGR           1          0          1   6.874E-02
  CGR           2          0          1   1.411E-02
  CGR           3          0          1   5.706E-03
  CGR           4          0          1   1.699E-03
  CGR           5          0          1   6.695E-04
  CGR           6          0          1   3.103E-04
  CGR           7          0          1   1.378E-04
  CGR           8          0          1   4.937E-05
  CGR           9          0          1   2.203E-05
  CGR          10          0          1   6.937E-06
  CGR          11          0          1   2.755E-06
  CGR          12          1          0   8.546E-07

    CGRSolver converged.

  ==> DFCorrGrad: Density-Fitted Correlated Gradients <==

    OpenMP threads:              1
    Integrals threads:           1
    Memory [GiB]:           22.352
    Schwarz Cutoff:          0E+00
    Fitting Condition:       1E-10

   => Auxiliary Basis Set <=

  Basis Set: (CC-PVDZ AUX)
    Blend: CC-PVDZ-JKFIT
    Number of shells: 423
    Number of basis functions: 1185
    Number of Cartesian functions: 1347
    Spherical Harmonics?: true
    Max angular momentum: 3

	-----------------------------------------------------------
	 ==================> DF-MP2 Energies <==================== 
	-----------------------------------------------------------
	 Reference Energy          =    -462.7813303315290341 [Eh]
	 Singles Energy            =      -0.0000000000000000 [Eh]
	 Same-Spin Energy          =      -0.4305493532651936 [Eh]
	 Opposite-Spin Energy      =      -1.2251667597651374 [Eh]
	 Correlation Energy        =      -1.6557161130303311 [Eh]
	 Total Energy              =    -464.4370464445593711 [Eh]
	-----------------------------------------------------------
	 ================> DF-SCS-MP2 Energies <================== 
	-----------------------------------------------------------
	 SCS Same-Spin Scale       =       0.3333333333333333 [-]
	 SCS Opposite-Spin Scale   =       1.2000000000000000 [-]
	 SCS Same-Spin Energy      =      -0.1435164510883978 [Eh]
	 SCS Opposite-Spin Energy  =      -1.4702001117181649 [Eh]
	 SCS Correlation Energy    =      -1.6137165628065628 [Eh]
	 SCS Total Energy          =    -464.3950468943356213 [Eh]
	-----------------------------------------------------------


  -Total Gradient:
     Atom            X                  Y                   Z
    ------   -----------------  -----------------  -----------------
       1        0.047475103974     0.042701779615    -0.022841477203
       2       -0.002979237454     0.008147003358    -0.009658938048
       3       -0.005592747734    -0.002793549491     0.001532591141
       4        0.001739105646     0.001218012648    -0.001096227686
       5       -0.007727630772    -0.003999049714     0.000340443856
       6       -0.011461953396     0.001423342744    -0.025782063783
       7        0.001726045554    -0.002644778494     0.010936004979
       8        0.002124234070    -0.000310169276     0.002427811970
       9       -0.000676308926     0.002415405191    -0.000325013909
      10       -0.000327340869    -0.000857773433     0.000284510890
      11        0.001226679688     0.001283646215     0.001320149425
      12        0.001182117810     0.000164984277     0.003296214291
      13       -0.000163643127    -0.001933115339    -0.001052337646
      14        0.009254567832     0.001376565564     0.005508316193
      15       -0.005607890124     0.000855399591    -0.000114510894
      16       -0.000570695567    -0.000339719202     0.000376890501
      17       -0.000930473640    -0.000593145968     0.000548452261
      18        0.001002188288    -0.000849621311     0.000941763367
      19       -0.002496429368    -0.000022513325     0.000857731114
      20        0.002405017004    -0.001614140112     0.000779206148
      21       -0.000806913784     0.000111587378    -0.000132436384
      22       -0.000574345461    -0.000327257416     0.000274452151
      23       -0.000695269898    -0.000541346654     0.000568955011
      24        0.000437043588     0.000603839392    -0.001145863335
      25        0.005364017073     0.019499492526     0.009163370176
      26       -0.070582764257    -0.015990949904     0.001008042361
      27        0.037257523844    -0.046983928856     0.021983963055


*** tstop() called on skystd05.palmetto.clemson.edu at Thu Oct 14 20:33:57 2021
Module time:
	user time   =      63.30 seconds =       1.06 minutes
	system time =       3.05 seconds =       0.05 minutes
	total time  =         66 seconds =       1.10 minutes
Total time:
	user time   =      78.38 seconds =       1.31 minutes
	system time =       3.73 seconds =       0.06 minutes
	total time  =         82 seconds =       1.37 minutes

			-----------------------------------------
			 OPTKING 2.0: for geometry optimizations 
			  - R.A. King,  Bethel University        
			-----------------------------------------

	Internal coordinates to be generated automatically.
	Detected frag 1 with atoms:  1 2 3 4 5 6 7 8 9 10 11 12 13 14 15 16 17 18 19 20
	 21 22 23 24 25 26 27
	---Fragment 1 Bond Connectivity---
	 1 : 2 6 25 26 27
	 2 : 1 3 6 14
	 3 : 2 4 12 13
	 4 : 3 5 10 11
	 5 : 4 6 8 9
	 6 : 1 2 5 7
	 7 : 6
	 8 : 5
	 9 : 5
	 10 : 4
	 11 : 4
	 12 : 3
	 13 : 3
	 14 : 2 15 19
	 15 : 14 16 24
	 16 : 15 17 23
	 17 : 16 18 22
	 18 : 17 19 21
	 19 : 14 18 20
	 20 : 19
	 21 : 18
	 22 : 17
	 23 : 16
	 24 : 15
	 25 : 1
	 26 : 1
	 27 : 1

	---Fragment 1 Geometry and Gradient---
	 C           2.0369504545        1.0223804378       -3.5498029629
	 C           1.3658520155        0.8122032084       -0.7767961697
	 C           2.9307342200        2.4787621270        1.0251238314
	 C           5.3183181419        0.9101099189        1.5946664986
	 C           5.8463038419       -0.5540555522       -0.8700787204
	 C           3.2245034846       -1.0555000488       -1.9739565674
	 H           2.6120073425       -2.9957102077       -2.3414818426
	 H           6.8872330219       -2.3232001434       -0.5233857860
	 H           6.9966368262        0.5942497560       -2.1804469411
	 H           4.8741058907       -0.4594898775        3.1058842606
	 H           6.9321234660        2.0617505938        2.2394202656
	 H           1.8508143209        2.9334831452        2.7454038844
	 H           3.4300886795        4.2850870797        0.1039276987
	 C          -1.2298304370        0.0313286891        0.0063970436
	 C          -1.5496023330       -1.6851964781        2.0210283968
	 C          -3.9727357827       -2.3858445644        2.8361145178
	 C          -6.1206249531       -1.3785543991        1.6418888648
	 C          -5.8257898830        0.3323337150       -0.3644220243
	 C          -3.3959479055        1.0340419377       -1.1698724318
	 H          -3.1665275950        2.3793493048       -2.7247466468
	 H          -7.4901964036        1.1253742911       -1.3014994154
	 H          -8.0120575012       -1.9291525620        2.2692363644
	 H          -4.1883951076       -3.7278543594        4.3948740097
	 H           0.1248688690       -2.4891067588        2.9355141120
	 H           0.5991145374        0.4566172228       -4.9224112033
	 H           3.2488620544        2.5947365091       -4.1352590138
	 H           1.6359323726        2.7089499121       -4.6693540661
	             0.0474751040        0.0427017796       -0.0228414772
	            -0.0029792375        0.0081470034       -0.0096589380
	            -0.0055927477       -0.0027935495        0.0015325911
	             0.0017391056        0.0012180126       -0.0010962277
	            -0.0077276308       -0.0039990497        0.0003404439
	            -0.0114619534        0.0014233427       -0.0257820638
	             0.0017260456       -0.0026447785        0.0109360050
	             0.0021242341       -0.0003101693        0.0024278120
	            -0.0006763089        0.0024154052       -0.0003250139
	            -0.0003273409       -0.0008577734        0.0002845109
	             0.0012266797        0.0012836462        0.0013201494
	             0.0011821178        0.0001649843        0.0032962143
	            -0.0001636431       -0.0019331153       -0.0010523376
	             0.0092545678        0.0013765656        0.0055083162
	            -0.0056078901        0.0008553996       -0.0001145109
	            -0.0005706956       -0.0003397192        0.0003768905
	            -0.0009304736       -0.0005931460        0.0005484523
	             0.0010021883       -0.0008496213        0.0009417634
	            -0.0024964294       -0.0000225133        0.0008577311
	             0.0024050170       -0.0016141401        0.0007792061
	            -0.0008069138        0.0001115874       -0.0001324364
	            -0.0005743455       -0.0003272574        0.0002744522
	            -0.0006952699       -0.0005413467        0.0005689550
	             0.0004370436        0.0006038394       -0.0011458633
	             0.0053640171        0.0194994925        0.0091633702
	            -0.0705827643       -0.0159909499        0.0010080424
	             0.0372575238       -0.0469839289        0.0219839631

	Previous optimization step data not found.  Starting new optimization.

	---Fragment 1 Intrafragment Coordinates---
	 - Coordinate -           - BOHR/RAD -       - ANG/DEG -
	 R(1,2)           =         2.860789	       1.513864
	 R(1,6)           =         2.865512	       1.516364
	 R(1,25)          =         2.066764	       1.093684
	 R(1,26)          =         2.069732	       1.095255
	 R(1,27)          =         2.063668	       1.092046
	 R(2,3)           =         2.910875	       1.540368
	 R(2,6)           =         2.894148	       1.531517
	 R(2,14)          =         2.821476	       1.493061
	 R(3,4)           =         2.913006	       1.541497
	 R(3,12)          =         2.081433	       1.101447
	 R(3,13)          =         2.088245	       1.105052
	 R(4,5)           =         2.915050	       1.542578
	 R(4,10)          =         2.087321	       1.104562
	 R(4,11)          =         2.084790	       1.103224
	 R(5,6)           =         2.888569	       1.528565
	 R(5,8)           =         2.081731	       1.101604
	 R(5,9)           =         2.087806	       1.104820
	 R(6,7)           =         2.067521	       1.094085
	 R(14,15)         =         2.665981	       1.410776
	 R(14,19)         =         2.661035	       1.408159
	 R(15,16)         =         2.650820	       1.402754
	 R(15,24)         =         2.070365	       1.095590
	 R(16,17)         =         2.655981	       1.405485
	 R(16,23)         =         2.068147	       1.094416
	 R(17,18)         =         2.653177	       1.404001
	 R(17,22)         =         2.067424	       1.094033
	 R(18,19)         =         2.654294	       1.404592
	 R(18,21)         =         2.068158	       1.094422
	 R(19,20)         =         2.068845	       1.094786
	 B(1,2,3)         =         2.017351	     115.585685
	 B(1,2,6)         =         1.042344	      59.721936
	 B(1,2,14)        =         2.100422	     120.345328
	 B(1,6,2)         =         1.039528	      59.560564
	 B(1,6,5)         =         2.049282	     117.415187
	 B(1,6,7)         =         2.048738	     117.384025
	 B(2,1,6)         =         1.059720	      60.717500
	 B(2,1,25)        =         2.049292	     117.415782
	 B(2,1,26)        =         2.057096	     117.862942
	 B(2,1,27)        =         2.141610	     122.705205
	 B(2,3,4)         =         1.826944	     104.676198
	 B(2,3,12)        =         1.936680	     110.963570
	 B(2,3,13)        =         1.929130	     110.530986
	 B(2,6,5)         =         1.888930	     108.227717
	 B(2,6,7)         =         2.081600	     119.266883
	 B(2,14,15)       =         2.092441	     119.888038
	 B(2,14,19)       =         2.119852	     121.458574
	 B(3,2,6)         =         1.854886	     106.277162
	 B(3,2,14)        =         2.072817	     118.763664
	 B(3,4,5)         =         1.827213	     104.691617
	 B(3,4,10)        =         1.897014	     108.690913
	 B(3,4,11)        =         1.979545	     113.419580
	 B(4,3,12)        =         1.962002	     112.414409
	 B(4,3,13)        =         1.934839	     110.858094
	 B(4,5,6)         =         1.819262	     104.236043
	 B(4,5,8)         =         1.956931	     112.123910
	 B(4,5,9)         =         1.932871	     110.745342
	 B(5,4,10)        =         1.897723	     108.731493
	 B(5,4,11)        =         1.980944	     113.499740
	 B(5,6,7)         =         2.094079	     119.981893
	 B(6,1,25)        =         2.043221	     117.067911
	 B(6,1,26)        =         2.053042	     117.630648
	 B(6,1,27)        =         2.902295	     166.289240
	 B(6,2,14)        =         2.125903	     121.805252
	 B(6,5,8)         =         1.949769	     111.713517
	 B(6,5,9)         =         1.934481	     110.837597
	 B(8,5,9)         =         1.871758	     107.243849
	 B(10,4,11)       =         1.878938	     107.655190
	 B(12,3,13)       =         1.875161	     107.438837
	 B(14,15,16)      =         2.108523	     120.809467
	 B(14,15,24)      =         2.079202	     119.129487
	 B(14,19,18)      =         2.107639	     120.758819
	 B(14,19,20)      =         2.079425	     119.142292
	 B(15,14,19)      =         2.070330	     118.621159
	 B(15,16,17)      =         2.095249	     120.048921
	 B(15,16,23)      =         2.092759	     119.906259
	 B(16,15,24)      =         2.095393	     120.057181
	 B(16,17,18)      =         2.088291	     119.650243
	 B(16,17,22)      =         2.097186	     120.159915
	 B(17,16,23)      =         2.095155	     120.043517
	 B(17,18,19)      =         2.096327	     120.110679
	 B(17,18,21)      =         2.094932	     120.030779
	 B(18,17,22)      =         2.097705	     120.189618
	 B(18,19,20)      =         2.096116	     120.098614
	 B(19,18,21)      =         2.091924	     119.858405
	 B(25,1,26)       =         2.012474	     115.306264
	 B(25,1,27)       =         1.295571	      74.230745
	 B(26,1,27)       =         0.849255	      48.658722
	 D(1,2,3,4)       =        -1.487484	     -85.226572
	 D(1,2,3,12)      =         2.675187	     153.276932
	 D(1,2,3,13)      =         0.596675	      34.186976
	 D(1,2,6,5)       =         1.948453	     111.638142
	 D(1,2,6,7)       =        -1.856921	    -106.393716
	 D(1,2,14,15)     =         2.408854	     138.017151
	 D(1,2,14,19)     =        -0.769280	     -44.076485
	 D(1,6,2,3)       =        -1.928884	    -110.516925
	 D(1,6,2,14)      =         1.903190	     109.044759
	 D(1,6,5,4)       =         1.468895	      84.161501
	 D(1,6,5,8)       =        -2.697521	    -154.556588
	 D(1,6,5,9)       =        -0.611214	     -35.019998
	 D(2,1,6,5)       =        -1.674893	     -95.964306
	 D(2,1,6,7)       =         1.911561	     109.524357
	 D(2,3,4,5)       =         0.589407	      33.770540
	 D(2,3,4,10)      =        -1.436065	     -82.280465
	 D(2,3,4,11)      =         2.757968	     158.019943
	 D(2,6,1,25)      =        -1.882068	    -107.834530
	 D(2,6,1,26)      =         1.887309	     108.134828
	 D(2,6,1,27)      =         1.891340	     108.365804
	 D(2,6,5,4)       =         0.342659	      19.632931
	 D(2,6,5,8)       =         2.459428	     140.914841
	 D(2,6,5,9)       =        -1.737450	     -99.548568
	 D(2,14,15,16)    =         3.108309	     178.092997
	 D(2,14,15,24)    =        -0.045760	      -2.621861
	 D(2,14,19,18)    =        -3.110817	    -178.236678
	 D(2,14,19,20)    =         0.027453	       1.572949
	 D(3,2,1,6)       =         1.651177	      94.605460
	 D(3,2,1,25)      =        -2.759824	    -158.126276
	 D(3,2,1,26)      =        -0.229547	     -13.152074
	 D(3,2,1,27)      =        -1.219795	     -69.889105
	 D(3,2,6,5)       =         0.019569	       1.121217
	 D(3,2,6,7)       =         2.497380	     143.089359
	 D(3,2,14,15)     =        -1.201325	     -68.830845
	 D(3,2,14,19)     =         1.903727	     109.075519
	 D(3,4,5,6)       =        -0.573602	     -32.864999
	 D(3,4,5,8)       =        -2.685602	    -153.873654
	 D(3,4,5,9)       =         1.507600	      86.379143
	 D(4,3,2,6)       =        -0.375127	     -21.493186
	 D(4,3,2,14)      =         2.100956	     120.375901
	 D(4,5,6,7)       =        -2.129570	    -122.015351
	 D(5,4,3,12)      =         2.693170	     154.307289
	 D(5,4,3,13)      =        -1.490910	     -85.422842
	 D(5,6,1,25)      =         2.726225	     156.201164
	 D(5,6,1,26)      =         0.212416	      12.170522
	 D(5,6,1,27)      =         0.216447	      12.401498
	 D(5,6,2,14)      =        -2.431542	    -139.317099
	 D(6,1,2,14)      =        -1.944837	    -111.430967
	 D(6,2,1,25)      =         1.872184	     107.268264
	 D(6,2,1,26)      =        -1.880724	    -107.757534
	 D(6,2,1,27)      =        -2.870972	    -164.494565
	 D(6,2,3,12)      =        -2.495641	    -142.989682
	 D(6,2,3,13)      =         1.709033	      97.920361
	 D(6,2,14,15)     =         1.168456	      66.947624
	 D(6,2,14,19)     =        -2.009677	    -115.146011
	 D(6,5,4,10)      =         1.451379	      83.157872
	 D(6,5,4,11)      =        -2.741271	    -157.063259
	 D(7,6,1,25)      =         0.029493	       1.689827
	 D(7,6,1,26)      =        -2.484316	    -142.340815
	 D(7,6,1,27)      =        -2.480285	    -142.109839
	 D(7,6,2,14)      =         0.046269	       2.651043
	 D(7,6,5,8)       =        -0.012801	      -0.733441
	 D(7,6,5,9)       =         2.073506	     118.803150
	 D(8,5,4,10)      =        -0.660621	     -37.850783
	 D(8,5,4,11)      =         1.429915	      81.928087
	 D(9,5,4,10)      =        -2.750604	    -157.597986
	 D(9,5,4,11)      =        -0.660068	     -37.819116
	 D(10,4,3,12)     =         0.667698	      38.256283
	 D(10,4,3,13)     =         2.766803	     158.526152
	 D(11,4,3,12)     =        -1.421454	     -81.443309
	 D(11,4,3,13)     =         0.677651	      38.826560
	 D(12,3,2,14)     =        -0.019558	      -1.120595
	 D(13,3,2,14)     =        -2.098070	    -120.210552
	 D(14,2,1,25)     =        -0.072653	      -4.162703
	 D(14,2,1,26)     =         2.457624	     140.811498
	 D(14,2,1,27)     =         1.467376	      84.074467
	 D(14,15,16,17)   =         0.001304	       0.074700
	 D(14,15,16,23)   =         3.135653	     179.659684
	 D(14,19,18,17)   =         0.004887	       0.280010
	 D(14,19,18,21)   =        -3.139052	    -179.854428
	 D(15,14,19,18)   =        -0.005315	      -0.304531
	 D(15,14,19,20)   =         3.132955	     179.505096
	 D(15,16,17,18)   =        -0.001796	      -0.102888
	 D(15,16,17,22)   =         3.136800	     179.725411
	 D(16,15,14,19)   =         0.002225	       0.127485
	 D(16,17,18,19)   =        -0.001268	      -0.072650
	 D(16,17,18,21)   =        -3.140510	    -179.937978
	 D(17,16,15,24)   =        -3.127697	    -179.203838
	 D(17,18,19,20)   =        -3.133351	    -179.527802
	 D(18,17,16,23)   =        -3.136135	    -179.687298
	 D(19,14,15,24)   =         3.131341	     179.412627
	 D(19,18,17,22)   =        -3.139863	    -179.900897
	 D(20,19,18,21)   =         0.005895	       0.337760
	 D(21,18,17,22)   =         0.004080	       0.233774
	 D(22,17,16,23)   =         0.002461	       0.141001
	 D(23,16,15,24)   =         0.006652	       0.381147

	Current energy   :      -464.4370464446

	Generating empirical Hessian (Schlegel '84) for each fragment.
	Taking PRFO optimization step.
	Maximizing along 1 lowest eigenvalue of Hessian.

 RFO min eigenvalues
 -0.039746 -0.000000 -0.000000 -0.000000 -0.000000 -0.000000 -0.000000 -0.000000
 -0.000000 -0.000000 -0.000000 -0.000000 -0.000000 -0.000000 -0.000000 -0.000000
 -0.000000 -0.000000 -0.000000 -0.000000 -0.000000 -0.000000 -0.000000 -0.000000
 -0.000000 -0.000000 -0.000000 -0.000000 -0.000000 -0.000000 -0.000000 -0.000000
 -0.000000 -0.000000 -0.000000 -0.000000 -0.000000 -0.000000 -0.000000 -0.000000
 -0.000000 -0.000000 -0.000000 -0.000000 -0.000000 -0.000000 -0.000000 -0.000000
 -0.000000 -0.000000 -0.000000  0.000000  0.000000  0.000000  0.000000  0.000000
  0.000000  0.000000  0.000000  0.000000  0.000000  0.000000  0.000000  0.000000
  0.000000  0.000000  0.000000  0.000000  0.000000  0.000000  0.000000  0.000000
  0.000000  0.000000  0.000000  0.000000  0.000000  0.000000  0.000000  0.000000
  0.000000  0.000000  0.000000  0.000000  0.000000  0.000000  0.000000  0.000000
  0.000000  0.000000  0.000000  0.000000  0.000000  0.000000  0.000000  0.000000
  0.000000  0.000000  0.000000  0.000000  0.000000  0.000000  0.000000  0.000000
  0.000000  0.000000  0.000000  0.000000  0.003409  0.005776  0.005874  0.007507
  0.012045  0.012467  0.015114  0.016990  0.017273  0.017343  0.017495  0.017535
  0.017591  0.017607  0.017664  0.020548  0.027627  0.028911  0.033424  0.038528
  0.043324  0.050842  0.053981  0.058637  0.061211  0.068934  0.069853  0.070210
  0.073200  0.079818  0.084030  0.093124  0.099095  0.103613  0.107861  0.110787
  0.159989  0.159997  0.159999  0.160000  0.160102  0.168457  0.201696  0.205132
  0.220000  0.220014  0.234885  0.249875  0.263980  0.266945  0.276423  0.290675
  0.301711  0.331166  0.331298  0.331549  0.331826  0.333286  0.335056  0.335231
  0.341746  0.342654  0.343065  0.343072  0.343424  0.343448  0.343508  0.344147
  0.362483  0.406935  0.407809  0.442335  0.445137  0.448683  0.450593

 RFO max eigenvalues
 -0.000000  0.000000
	Change in coordinate exceeds step limit of    0.50000.
	Scaling displacements by    0.90368
	|RFO target step|  :        0.5000000000
	RFO gradient       :       -0.0718352422
	RFO hessian        :        0.0901164239
	Projected Delta(E) :       -0.0197224545

	Back-transformation to cartesian coordinates...
	Could not converge backtransformation.
	Using first guess instead.

	--- Internal Coordinate Step in ANG or DEG, aJ/ANG or AJ/DEG ---
	 ---------------------------------------------------------------------------
	   Coordinate                Previous        Force       Change         New 
	   ----------                --------       ------       ------       ------
	    1 R(1,2)          =      1.513864    -0.015917    -0.002057     1.511807
	    2 R(1,6)          =      1.516364     0.040967     0.010006     1.526370
	    3 R(1,25)         =      1.093684     0.124860     0.021444     1.115128
	    4 R(1,26)         =      1.095255     0.442933     0.076672     1.171928
	    5 R(1,27)         =      1.092046     0.474261     0.072995     1.165041
	    6 R(2,3)          =      1.540368     0.017318     0.003461     1.543829
	    7 R(2,6)          =      1.531517     0.026046     0.001436     1.532953
	    8 R(2,14)         =      1.493061    -0.011672    -0.001720     1.491341
	    9 R(3,4)          =      1.541497     0.009567     0.001277     1.542774
	   10 R(3,12)         =      1.101447    -0.017689    -0.002713     1.098733
	   11 R(3,13)         =      1.105052     0.010274     0.001612     1.106664
	   12 R(4,5)          =      1.542578    -0.002618    -0.000259     1.542319
	   13 R(4,10)         =      1.104562    -0.006908    -0.001058     1.103504
	   14 R(4,11)         =      1.103224    -0.017029    -0.002621     1.100603
	   15 R(5,6)          =      1.528565     0.018330     0.003311     1.531876
	   16 R(5,8)          =      1.101604    -0.014254    -0.002024     1.099580
	   17 R(5,9)          =      1.104820    -0.009556    -0.001462     1.103358
	   18 R(6,7)          =      1.094085    -0.000219     0.000565     1.094650
	   19 R(14,15)        =      1.410776    -0.011440    -0.001289     1.409487
	   20 R(14,19)        =      1.408159     0.004845     0.000691     1.408850
	   21 R(15,16)        =      1.402754    -0.016036    -0.001873     1.400880
	   22 R(15,24)        =      1.095590     0.003189     0.000505     1.096095
	   23 R(16,17)        =      1.405485     0.007959     0.000926     1.406411
	   24 R(16,23)        =      1.094416    -0.007024    -0.001037     1.093379
	   25 R(17,18)        =      1.404001    -0.001259    -0.000131     1.403870
	   26 R(17,22)        =      1.094033    -0.005733    -0.000861     1.093173
	   27 R(18,19)        =      1.404592    -0.015416    -0.001801     1.402791
	   28 R(18,21)        =      1.094422    -0.006197    -0.000922     1.093500
	   29 R(19,20)        =      1.094786     0.011275     0.001831     1.096617
	   30 B(1,2,3)        =    115.585685     0.000003    -0.038703   115.546982
	   31 B(1,2,6)        =     59.721936     0.000132     0.446748    60.168684
	   32 B(1,2,14)       =    120.345328    -0.000371    -1.705064   118.640263
	   33 B(1,6,2)        =     59.560564    -0.000181    -0.331764    59.228800
	   34 B(1,6,5)        =    117.415187     0.000158     0.516433   117.931620
	   35 B(1,6,7)        =    117.384025    -0.000290    -2.270519   115.113506
	   36 B(2,1,6)        =     60.717500     0.000050    -0.114984    60.602516
	   37 B(2,1,25)       =    117.415782     0.000075     1.806474   119.222256
	   38 B(2,1,26)       =    117.862942    -0.000226     1.020780   118.883722
	   39 B(2,1,27)       =    122.705205    -0.000160    -0.826506   121.878698
	   40 B(2,3,4)        =    104.676198     0.000025     0.013161   104.689358
	   41 B(2,3,12)       =    110.963570    -0.000188    -0.965000   109.998570
	   42 B(2,3,13)       =    110.530986     0.000116     0.627841   111.158826
	   43 B(2,6,5)        =    108.227717     0.000139     0.527948   108.755665
	   44 B(2,6,7)        =    119.266883    -0.000009     0.453901   119.720784
	   45 B(2,14,15)      =    119.888038    -0.000383    -0.913429   118.974609
	   46 B(2,14,19)      =    121.458574     0.000035     0.066804   121.525378
	   47 B(3,2,6)        =    106.277162    -0.000185    -0.607331   105.669832
	   48 B(3,2,14)       =    118.763664     0.000351     1.347270   120.110934
	   49 B(3,4,5)        =    104.691617     0.000087     0.024676   104.716293
	   50 B(3,4,10)       =    108.690913    -0.000013     0.141345   108.832258
	   51 B(3,4,11)       =    113.419580    -0.000020    -0.052800   113.366780
	   52 B(4,3,12)       =    112.414409     0.000097     0.545513   112.959923
	   53 B(4,3,13)       =    110.858094    -0.000006     0.110307   110.968401
	   54 B(4,5,6)        =    104.236043    -0.000148    -0.603276   103.632767
	   55 B(4,5,8)        =    112.123910     0.000216     0.863823   112.987733
	   56 B(4,5,9)        =    110.745342     0.000026     0.404205   111.149547
	   57 B(5,4,10)       =    108.731493     0.000031     0.308624   109.040117
	   58 B(5,4,11)       =    113.499740    -0.000095    -0.403612   113.096128
	   59 B(5,6,7)        =    119.981893     0.000095     0.872184   120.854078
	   60 B(6,1,25)       =    117.067911    -0.000281    -2.349135   114.718777
	   61 B(6,1,26)       =    117.630648    -0.001186    -7.073581   110.557068
	   62 B(6,1,27)       =    166.289240     0.000359     1.724531   168.013771
	   63 B(6,2,14)       =    121.805252    -0.000068     0.162679   121.967931
	   64 B(6,5,8)        =    111.713517    -0.000135    -0.814291   110.899225
	   65 B(6,5,9)        =    110.837597     0.000121     0.497257   111.334854
	   66 B(8,5,9)        =    107.243849    -0.000073    -0.321161   106.922687
	   67 B(10,4,11)      =    107.655190     0.000015     0.016787   107.671978
	   68 B(12,3,13)      =    107.438837    -0.000040    -0.311260   107.127577
	   69 B(14,15,16)     =    120.809467    -0.000262    -0.666574   120.142893
	   70 B(14,15,24)     =    119.129487     0.000232     0.677108   119.806595
	   71 B(14,19,18)     =    120.758819    -0.000159    -0.390032   120.368787
	   72 B(14,19,20)     =    119.142292     0.000282     0.882259   120.024552
	   73 B(15,14,19)     =    118.621159     0.000347     0.843290   119.464449
	   74 B(15,16,17)     =    120.048921     0.000034     0.091629   120.140550
	   75 B(15,16,23)     =    119.906259    -0.000065    -0.209039   119.697220
	   76 B(16,15,24)     =    120.057181     0.000030    -0.008949   120.048232
	   77 B(16,17,18)     =    119.650243     0.000126     0.333088   119.983331
	   78 B(16,17,22)     =    120.159915    -0.000051    -0.125994   120.033922
	   79 B(17,16,23)     =    120.043517     0.000031     0.117823   120.161340
	   80 B(17,18,19)     =    120.110679    -0.000086    -0.211329   119.899351
	   81 B(17,18,21)     =    120.030779     0.000070     0.198268   120.229047
	   82 B(18,17,22)     =    120.189618    -0.000075    -0.206940   119.982678
	   83 B(18,19,20)     =    120.098614    -0.000123    -0.494296   119.604318
	   84 B(19,18,21)     =    119.858405     0.000016     0.012781   119.871186
	   85 B(25,1,26)      =    115.306264     0.000956     2.846325   118.152588
	   86 B(25,1,27)      =     74.230745    -0.000025     0.874354    75.105099
	   87 B(26,1,27)      =     48.658722     0.001545     8.896858    57.555580
	   88 D(1,2,3,4)      =    -85.226572    -0.000026    -0.757978   -85.984549
	   89 D(1,2,3,12)     =    153.276932    -0.000032    -0.899511   152.377421
	   90 D(1,2,3,13)     =     34.186976    -0.000010    -0.293756    33.893220
	   91 D(1,2,6,5)      =    111.638142     0.000021     0.296622   111.934764
	   92 D(1,2,6,7)      =   -106.393716     0.000098     3.164002  -103.229714
	   93 D(1,2,14,15)    =    138.017151    -0.000005    -0.068200   137.948951
	   94 D(1,2,14,19)    =    -44.076485    -0.000005    -0.155831   -44.232315
	   95 D(1,6,2,3)      =   -110.516925    -0.000025    -0.304324  -110.821249
	   96 D(1,6,2,14)     =    109.044759    -0.000086    -1.981951   107.062808
	   97 D(1,6,5,4)      =     84.161501    -0.000015     0.386094    84.547596
	   98 D(1,6,5,8)      =   -154.556588     0.000007     0.622145  -153.934443
	   99 D(1,6,5,9)      =    -35.019998    -0.000016     0.009443   -35.010555
	  100 D(2,1,6,5)      =    -95.964306    -0.000001    -0.228145   -96.192452
	  101 D(2,1,6,7)      =    109.524357     0.000013     1.462327   110.986684
	  102 D(2,3,4,5)      =     33.770540     0.000037     1.013995    34.784536
	  103 D(2,3,4,10)     =    -82.280465     0.000020     0.580840   -81.699625
	  104 D(2,3,4,11)     =    158.019943     0.000021     0.495493   158.515435
	  105 D(2,6,1,25)     =   -107.834530    -0.000052    -3.112886  -110.947416
	  106 D(2,6,1,26)     =    108.134828     0.000056     4.250737   112.385565
	  107 D(2,6,1,27)     =    108.365804    -0.000047    -2.995101   105.370703
	  108 D(2,6,5,4)      =     19.632931     0.000015     0.478220    20.111151
	  109 D(2,6,5,8)      =    140.914841     0.000037     0.714272   141.629113
	  110 D(2,6,5,9)      =    -99.548568     0.000013     0.101569   -99.446999
	  111 D(2,14,15,16)   =    178.092997    -0.000002    -0.115217   177.977780
	  112 D(2,14,15,24)   =     -2.621861     0.000001     0.050640    -2.571221
	  113 D(2,14,19,18)   =   -178.236678     0.000004     0.142620  -178.094059
	  114 D(2,14,19,20)   =      1.572949    -0.000003    -0.226031     1.346918
	  115 D(3,2,1,6)      =     94.605460    -0.000040    -0.534171    94.071289
	  116 D(3,2,1,25)     =   -158.126276    -0.000121    -4.223110  -162.349386
	  117 D(3,2,1,26)     =    -13.152074     0.000262     8.626266    -4.525808
	  118 D(3,2,1,27)     =    -69.889105    -0.000136    -2.399822   -72.288927
	  119 D(3,2,6,5)      =      1.121217    -0.000004    -0.007702     1.113515
	  120 D(3,2,6,7)      =    143.089359     0.000073     2.859678   145.949037
	  121 D(3,2,14,15)    =    -68.830845    -0.000014    -1.000246   -69.831091
	  122 D(3,2,14,19)    =    109.075519    -0.000014    -1.087876   107.987643
	  123 D(3,4,5,6)      =    -32.864999    -0.000023    -0.760213   -33.625212
	  124 D(3,4,5,8)      =   -153.873654     0.000009     0.141352  -153.732301
	  125 D(3,4,5,9)      =     86.379143    -0.000007    -0.319515    86.059628
	  126 D(4,3,2,6)      =    -21.493186    -0.000008    -0.502898   -21.996084
	  127 D(4,3,2,14)     =    120.375901     0.000007     0.600168   120.976069
	  128 D(4,5,6,7)      =   -122.015351    -0.000052    -2.238617  -124.253968
	  129 D(5,4,3,12)     =    154.307289     0.000001     0.148969   154.456258
	  130 D(5,4,3,13)     =    -85.422842     0.000003     0.202279   -85.220563
	  131 D(5,6,1,25)     =    156.201164    -0.000053    -3.341032   152.860132
	  132 D(5,6,1,26)     =     12.170522     0.000055     4.022592    16.193113
	  133 D(5,6,1,27)     =     12.401498    -0.000048    -3.223247     9.178251
	  134 D(5,6,2,14)     =   -139.317099    -0.000065    -1.685328  -141.002427
	  135 D(6,1,2,14)     =   -111.430967    -0.000027    -1.041032  -112.471999
	  136 D(6,2,1,25)     =    107.268264    -0.000081    -3.688939   103.579325
	  137 D(6,2,1,26)     =   -107.757534     0.000302     9.160437   -98.597097
	  138 D(6,2,1,27)     =   -164.494565    -0.000096    -1.865651  -166.360216
	  139 D(6,2,3,12)     =   -142.989682    -0.000015    -0.644432  -143.634114
	  140 D(6,2,3,13)     =     97.920361     0.000007    -0.038677    97.881685
	  141 D(6,2,14,15)    =     66.947624     0.000003     0.105549    67.053174
	  142 D(6,2,14,19)    =   -115.146011     0.000002     0.017919  -115.128092
	  143 D(6,5,4,10)     =     83.157872    -0.000013    -0.442505    82.715367
	  144 D(6,5,4,11)     =   -157.063259    -0.000018    -0.466282  -157.529541
	  145 D(7,6,1,25)     =      1.689827    -0.000040    -1.650559     0.039268
	  146 D(7,6,1,26)     =   -142.340815     0.000068     5.713064  -136.627751
	  147 D(7,6,1,27)     =   -142.109839    -0.000034    -1.532774  -143.642613
	  148 D(7,6,2,14)     =      2.651043     0.000012     1.182051     3.833094
	  149 D(7,6,5,8)      =     -0.733441    -0.000030    -2.002566    -2.736007
	  150 D(7,6,5,9)      =    118.803150    -0.000053    -2.615268   116.187881
	  151 D(8,5,4,10)     =    -37.850783     0.000019     0.459061   -37.391722
	  152 D(8,5,4,11)     =     81.928087     0.000014     0.435283    82.363370
	  153 D(9,5,4,10)     =   -157.597986     0.000003    -0.001807  -157.599793
	  154 D(9,5,4,11)     =    -37.819116    -0.000002    -0.025584   -37.844700
	  155 D(10,4,3,12)    =     38.256283    -0.000016    -0.284186    37.972098
	  156 D(10,4,3,13)    =    158.526152    -0.000014    -0.230876   158.295277
	  157 D(11,4,3,12)    =    -81.443309    -0.000015    -0.369533   -81.812842
	  158 D(11,4,3,13)    =     38.826560    -0.000013    -0.316223    38.510337
	  159 D(12,3,2,14)    =     -1.120595     0.000000     0.458634    -0.661961
	  160 D(13,3,2,14)    =   -120.210552     0.000022     1.064390  -119.146162
	  161 D(14,2,1,25)    =     -4.162703    -0.000108    -4.729971    -8.892674
	  162 D(14,2,1,26)    =    140.811498     0.000275     8.119405   148.930904
	  163 D(14,2,1,27)    =     84.074467    -0.000123    -2.906682    81.167785
	  164 D(14,15,16,17)  =      0.074700     0.000000     0.006599     0.081299
	  165 D(14,15,16,23)  =    179.659684     0.000002     0.078968   179.738652
	  166 D(14,19,18,17)  =      0.280010    -0.000000    -0.017270     0.262740
	  167 D(14,19,18,21)  =   -179.854428    -0.000002    -0.117115  -179.971543
	  168 D(15,14,19,18)  =     -0.304531    -0.000000     0.018746    -0.285785
	  169 D(15,14,19,20)  =    179.505096    -0.000007    -0.349905   179.155191
	  170 D(15,16,17,18)  =     -0.102888    -0.000000    -0.002654    -0.105541
	  171 D(15,16,17,22)  =    179.725411     0.000001     0.072942   179.798354
	  172 D(16,15,14,19)  =      0.127485     0.000000    -0.014188     0.113297
	  173 D(16,17,18,19)  =     -0.072650     0.000000     0.006485    -0.066165
	  174 D(16,17,18,21)  =   -179.937978     0.000002     0.106945  -179.831034
	  175 D(17,16,15,24)  =   -179.203838    -0.000003    -0.164528  -179.368365
	  176 D(17,18,19,20)  =   -179.527802     0.000007     0.347221  -179.180581
	  177 D(18,17,16,23)  =   -179.687298    -0.000001    -0.073995  -179.761293
	  178 D(19,14,15,24)  =    179.412627     0.000003     0.151669   179.564295
	  179 D(19,18,17,22)  =   -179.900897    -0.000001    -0.069213  -179.970110
	  180 D(20,19,18,21)  =      0.337760     0.000005     0.247376     0.585136
	  181 D(21,18,17,22)  =      0.233774     0.000001     0.031247     0.265021
	  182 D(22,17,16,23)  =      0.141001     0.000000     0.001601     0.142602
	  183 D(23,16,15,24)  =      0.381147    -0.000002    -0.092158     0.288988
	 ---------------------------------------------------------------------------
	Successfully symmetrized geometry.

  ==> Convergence Check <==

  Measures of convergence in internal coordinates in au.
  Criteria marked as inactive (o), active & met (*), and active & unmet ( ).
  --------------------------------------------------------------------------------------------- ~
   Step     Total Energy     Delta E     MAX Force     RMS Force      MAX Disp      RMS Disp    ~
  --------------------------------------------------------------------------------------------- ~
    Convergence Criteria    1.00e-06 *    3.00e-04 *             o    1.20e-03 *             o  ~
  --------------------------------------------------------------------------------------------- ~
      1    -464.43704644   -4.64e+02      5.76e-02      6.95e-03 o    1.60e-01      3.59e-02 o  ~
  ---------------------------------------------------------------------------------------------

	Writing optimization data to binary file.
	Structure for next step:
	Cartesian Geometry (in Angstrom)
	    C     1.0447643713   0.5349808194  -1.8578921978
	    C     0.7168310104   0.4270597655  -0.3860316275
	    C     1.5597899321   1.3185786056   0.5509973213
	    C     2.8249426398   0.4872474197   0.8483661487
	    C     3.1037147215  -0.2830428982  -0.4584185644
	    C     1.7055888309  -0.5572694561  -1.0211693375
	    H     1.3832559350  -1.5777709059  -1.2512473531
	    H     3.6518085949  -1.2221321225  -0.2947676331
	    H     3.7058587434   0.3227297702  -1.1568883575
	    H     2.5960014487  -0.2353446375   1.6503439811
	    H     3.6791722727   1.0962184622   1.1811905208
	    H     0.9849888215   1.5625919168   1.4550307706
	    H     1.8211816731   2.2765770240   0.0625115181
	    C    -0.6608042644   0.0166103099   0.0111461289
	    C    -0.8216524629  -0.9001160208   1.0696324843
	    C    -2.1054573864  -1.2700918958   1.4908549749
	    C    -3.2393570647  -0.7296810728   0.8582257400
	    C    -3.0856490046   0.1842423014  -0.1962733679
	    C    -1.8003380886   0.5578153954  -0.6160846560
	    H    -1.6859279633   1.2823374511  -1.4312820979
	    H    -3.9644952343   0.6090047147  -0.6891704358
	    H    -4.2403385530  -1.0221243009   1.1861583814
	    H    -2.2217691270  -1.9850857990   2.3098380398
	    H     0.0610294238  -1.3301044227   1.5568762843
	    H     0.3074035328   0.1655479255  -2.6084448600
	    H     1.8383417894   1.3245506919  -2.2046320426
	    H     0.7590572608   1.4745996433  -2.4846361018
			--------------------------
			 OPTKING Finished Execution 
			--------------------------

    Structure for next step:
    Molecular point group: c1
    Full point group: C1

    Geometry (in Angstrom), charge = 1, multiplicity = 1:

    C            1.046951854767     0.533729872255    -1.862793241083
    C            0.719018492487     0.425808817894    -0.390932665010
    C            1.561977417509     1.317327661548     0.546096287455
    C            2.827130130241     0.485996472391     0.843465116007
    C            3.105902212984    -0.284293848602    -0.463319602188
    C            1.707776316888    -0.558520407530    -1.026070377454
    H            1.385443419698    -1.579021861368    -1.256148394039
    H            3.653996088546    -1.223383076540    -0.299668670200
    H            3.708046237232     0.321478822211    -1.161789398047
    H            2.598188938187    -0.236595587695     1.645442951568
    H            3.681359766432     1.094967517239     1.176289489420
    H            0.987176304672     1.561340973656     1.450129740289
    H            1.823369159569     2.275326083664     0.057610482383
    C           -0.658616787727     0.015359360730     0.006245092929
    C           -0.819464986821    -0.901366973569     1.064731452521
    C           -2.103269915346    -1.271342850074     1.485953944758
    C           -3.237169598163    -0.730932024942     0.853324707395
    C           -3.083461537407     0.182991352847    -0.201174404663
    C           -1.798150616330     0.556564448320    -0.620985694450
    H           -1.683740490579     1.281086506916    -1.436183139489
    H           -3.962307770581     0.607753767790    -0.694071474504
    H           -4.238151090318    -1.023375254199     1.181257350101
    H           -2.219581656383    -1.986336756016     2.304937012850
    H            0.063216903385    -1.331355377233     1.551975254393
    H            0.309591013362     0.164296976895    -2.613345906215
    H            1.840529275937     1.323299747839    -2.209533087214
    H            0.761244743107     1.473348699846    -2.489537147515


Scratch directory: /tmp/
gradient() will perform analytic gradient computation.

*** tstart() called on skystd05.palmetto.clemson.edu
*** at Thu Oct 14 20:33:57 2021

   => Loading Basis Set <=

    Name: CC-PVDZ
    Role: ORBITAL
    Keyword: BASIS
    atoms 1-6, 14-19  entry C          line   138 file /home/maxbuskirk/.conda/envs/psifour/share/psi4/basis/cc-pvdz.gbs 
    atoms 7-13, 20-27 entry H          line    22 file /home/maxbuskirk/.conda/envs/psifour/share/psi4/basis/cc-pvdz.gbs 


         ---------------------------------------------------------
                                   SCF
               by Justin Turney, Rob Parrish, Andy Simmonett
                          and Daniel G. A. Smith
                              RHF Reference
                        1 Threads,  30517 MiB Core
         ---------------------------------------------------------

  ==> Geometry <==

    Molecular point group: c1
    Full point group: C1

    Geometry (in Angstrom), charge = 1, multiplicity = 1:

       Center              X                  Y                   Z               Mass       
    ------------   -----------------  -----------------  -----------------  -----------------
         C            1.046951854767     0.533729872255    -1.862793241083    12.000000000000
         C            0.719018492487     0.425808817894    -0.390932665010    12.000000000000
         C            1.561977417509     1.317327661548     0.546096287455    12.000000000000
         C            2.827130130241     0.485996472391     0.843465116007    12.000000000000
         C            3.105902212984    -0.284293848602    -0.463319602188    12.000000000000
         C            1.707776316888    -0.558520407530    -1.026070377454    12.000000000000
         H            1.385443419698    -1.579021861368    -1.256148394039     1.007825032230
         H            3.653996088546    -1.223383076540    -0.299668670200     1.007825032230
         H            3.708046237232     0.321478822211    -1.161789398047     1.007825032230
         H            2.598188938187    -0.236595587695     1.645442951568     1.007825032230
         H            3.681359766432     1.094967517239     1.176289489420     1.007825032230
         H            0.987176304672     1.561340973656     1.450129740289     1.007825032230
         H            1.823369159569     2.275326083664     0.057610482383     1.007825032230
         C           -0.658616787727     0.015359360730     0.006245092929    12.000000000000
         C           -0.819464986821    -0.901366973569     1.064731452521    12.000000000000
         C           -2.103269915346    -1.271342850074     1.485953944758    12.000000000000
         C           -3.237169598163    -0.730932024942     0.853324707395    12.000000000000
         C           -3.083461537407     0.182991352847    -0.201174404663    12.000000000000
         C           -1.798150616330     0.556564448320    -0.620985694450    12.000000000000
         H           -1.683740490579     1.281086506916    -1.436183139489     1.007825032230
         H           -3.962307770581     0.607753767790    -0.694071474504     1.007825032230
         H           -4.238151090318    -1.023375254199     1.181257350101     1.007825032230
         H           -2.219581656383    -1.986336756016     2.304937012850     1.007825032230
         H            0.063216903385    -1.331355377233     1.551975254393     1.007825032230
         H            0.309591013362     0.164296976895    -2.613345906215     1.007825032230
         H            1.840529275937     1.323299747839    -2.209533087214     1.007825032230
         H            0.761244743107     1.473348699846    -2.489537147516     1.007825032230

  Running in c1 symmetry.

  Rotational constants: A =      0.07216  B =      0.02007  C =      0.01806 [cm^-1]
  Rotational constants: A =   2163.30154  B =    601.74909  C =    541.29201 [MHz]
  Nuclear repulsion =  680.231861898414877

  Charge       = 1
  Multiplicity = 1
  Electrons    = 86
  Nalpha       = 43
  Nbeta        = 43

  ==> Algorithm <==

  SCF Algorithm Type is DF.
  DIIS enabled.
  MOM disabled.
  Fractional occupation disabled.
  Guess Type is READ.
  Energy threshold   = 1.00e-10
  Density threshold  = 1.00e-10
  Integral threshold = 1.00e-12

  ==> Primary Basis <==

  Basis Set: CC-PVDZ
    Blend: CC-PVDZ
    Number of shells: 117
    Number of basis functions: 243
    Number of Cartesian functions: 255
    Spherical Harmonics?: true
    Max angular momentum: 2

   => Loading Basis Set <=

    Name: (CC-PVDZ AUX)
    Role: JKFIT
    Keyword: DF_BASIS_SCF
    atoms 1-6, 14-19  entry C          line   121 file /home/maxbuskirk/.conda/envs/psifour/share/psi4/basis/cc-pvdz-jkfit.gbs 
    atoms 7-13, 20-27 entry H          line    51 file /home/maxbuskirk/.conda/envs/psifour/share/psi4/basis/cc-pvdz-jkfit.gbs 

   => Loading Basis Set <=

    Name: CC-PVDZ
    Role: ORBITAL
    Keyword: BASIS
    atoms 1-6, 14-19  entry C          line   138 file /home/maxbuskirk/.conda/envs/psifour/share/psi4/basis/cc-pvdz.gbs 
    atoms 7-13, 20-27 entry H          line    22 file /home/maxbuskirk/.conda/envs/psifour/share/psi4/basis/cc-pvdz.gbs 

  Reading orbitals from file /tmp/2-2ndcorner.mol.387459.180.npy, no projection.

  ==> Integral Setup <==

  DFHelper Memory: AOs need 0.498 GiB; user supplied 22.352 GiB. Using in-core AOs.

  ==> MemDFJK: Density-Fitted J/K Matrices <==

    J tasked:                   Yes
    K tasked:                   Yes
    wK tasked:                   No
    OpenMP threads:               1
    Memory [MiB]:             22888
    Algorithm:                 Core
    Schwarz Cutoff:           1E-12
    Mask sparsity (%):       8.3050
    Fitting Condition:        1E-10

   => Auxiliary Basis Set <=

  Basis Set: (CC-PVDZ AUX)
    Blend: CC-PVDZ-JKFIT
    Number of shells: 423
    Number of basis functions: 1185
    Number of Cartesian functions: 1347
    Spherical Harmonics?: true
    Max angular momentum: 3

  Minimum eigenvalue in the overlap matrix is 3.2957706550E-04.
  Reciprocal condition number of the overlap matrix is 4.6862998807E-05.
    Using symmetric orthogonalization.

  ==> Pre-Iterations <==

  SCF Guess: Orbitals guess was supplied from a previous computation.

   -------------------------------------------------------
    Irrep   Nso     Nmo     Nalpha   Nbeta   Ndocc  Nsocc
   -------------------------------------------------------
     A        243     243      43      43      43       0
   -------------------------------------------------------
    Total     243     243      43      43      43       0
   -------------------------------------------------------

  ==> Iterations <==

                           Total Energy        Delta E     RMS |[F,P]|

   @DF-RHF iter   0:  -462.64121578671205   -4.62641e+02   7.97000e-04 
   @DF-RHF iter   1:  -462.79399851086339   -1.52783e-01   2.85632e-04 DIIS
   @DF-RHF iter   2:  -462.79667488828250   -2.67638e-03   1.29793e-04 DIIS
   @DF-RHF iter   3:  -462.79720411620684   -5.29228e-04   2.61415e-05 DIIS
   @DF-RHF iter   4:  -462.79724705733724   -4.29411e-05   1.09410e-05 DIIS
   @DF-RHF iter   5:  -462.79725731056766   -1.02532e-05   4.76961e-06 DIIS
   @DF-RHF iter   6:  -462.79725944918158   -2.13861e-06   1.35747e-06 DIIS
   @DF-RHF iter   7:  -462.79725965107082   -2.01889e-07   4.30377e-07 DIIS
   @DF-RHF iter   8:  -462.79725966607936   -1.50085e-08   1.48508e-07 DIIS
   @DF-RHF iter   9:  -462.79725966792910   -1.84974e-09   5.41139e-08 DIIS
   @DF-RHF iter  10:  -462.79725966825936   -3.30260e-10   3.01413e-08 DIIS
   @DF-RHF iter  11:  -462.79725966835133   -9.19727e-11   1.36622e-08 DIIS
   @DF-RHF iter  12:  -462.79725966838390   -3.25713e-11   5.41557e-09 DIIS
   @DF-RHF iter  13:  -462.79725966838492   -1.02318e-12   1.95268e-09 DIIS
   @DF-RHF iter  14:  -462.79725966838970   -4.77485e-12   5.68451e-10 DIIS
   @DF-RHF iter  15:  -462.79725966838913    5.68434e-13   1.84298e-10 DIIS
   @DF-RHF iter  16:  -462.79725966838851    6.25278e-13   7.22905e-11 DIIS
  Energy and wave function converged.


  ==> Post-Iterations <==

    Orbital Energies [Eh]
    ---------------------

    Doubly Occupied:                                                      

       1A    -11.486507     2A    -11.469394     3A    -11.441442  
       4A    -11.397420     5A    -11.391064     6A    -11.387915  
       7A    -11.377895     8A    -11.376049     9A    -11.371556  
      10A    -11.364680    11A    -11.363729    12A    -11.361406  
      13A     -1.394603    14A     -1.273527    15A     -1.224636  
      16A     -1.167722    17A     -1.137336    18A     -1.127617  
      19A     -1.099617    20A     -0.972764    21A     -0.965051  
      22A     -0.950766    23A     -0.915411    24A     -0.870098  
      25A     -0.837866    26A     -0.802180    27A     -0.781883  
      28A     -0.759101    29A     -0.752213    30A     -0.742467  
      31A     -0.720968    32A     -0.707306    33A     -0.678246  
      34A     -0.664985    35A     -0.650913    36A     -0.639054  
      37A     -0.631907    38A     -0.619575    39A     -0.614169  
      40A     -0.610058    41A     -0.583618    42A     -0.458022  
      43A     -0.453990  

    Virtual:                                                              

      44A     -0.098226    45A     -0.024651    46A     -0.000779  
      47A      0.005316    48A      0.025290    49A      0.048868  
      50A      0.074083    51A      0.079692    52A      0.092660  
      53A      0.099085    54A      0.114832    55A      0.120286  
      56A      0.123029    57A      0.136712    58A      0.140094  
      59A      0.154434    60A      0.161548    61A      0.174779  
      62A      0.188084    63A      0.214236    64A      0.219330  
      65A      0.227491    66A      0.258898    67A      0.267408  
      68A      0.308327    69A      0.323131    70A      0.332369  
      71A      0.348598    72A      0.353283    73A      0.364112  
      74A      0.415754    75A      0.426817    76A      0.463064  
      77A      0.467514    78A      0.484326    79A      0.498259  
      80A      0.516690    81A      0.524637    82A      0.534609  
      83A      0.543755    84A      0.563344    85A      0.574768  
      86A      0.579847    87A      0.589391    88A      0.597358  
      89A      0.605064    90A      0.608951    91A      0.615576  
      92A      0.620880    93A      0.635362    94A      0.649766  
      95A      0.661166    96A      0.670712    97A      0.682222  
      98A      0.690840    99A      0.696936   100A      0.700812  
     101A      0.703745   102A      0.711877   103A      0.716786  
     104A      0.739344   105A      0.744751   106A      0.751461  
     107A      0.754169   108A      0.758633   109A      0.763191  
     110A      0.772821   111A      0.776942   112A      0.797560  
     113A      0.800388   114A      0.803405   115A      0.827190  
     116A      0.841245   117A      0.854187   118A      0.877501  
     119A      0.885978   120A      0.970878   121A      0.993977  
     122A      1.000981   123A      1.022115   124A      1.025272  
     125A      1.030800   126A      1.039401   127A      1.063319  
     128A      1.092770   129A      1.114501   130A      1.126180  
     131A      1.133087   132A      1.141594   133A      1.146445  
     134A      1.172808   135A      1.183888   136A      1.188886  
     137A      1.230946   138A      1.256988   139A      1.274167  
     140A      1.280001   141A      1.301527   142A      1.315502  
     143A      1.328397   144A      1.364928   145A      1.384998  
     146A      1.414291   147A      1.434504   148A      1.467249  
     149A      1.495010   150A      1.501660   151A      1.523071  
     152A      1.547226   153A      1.562761   154A      1.577920  
     155A      1.593209   156A      1.630157   157A      1.632226  
     158A      1.640090   159A      1.646231   160A      1.658343  
     161A      1.680133   162A      1.695628   163A      1.702777  
     164A      1.728864   165A      1.732581   166A      1.750698  
     167A      1.757351   168A      1.765658   169A      1.780394  
     170A      1.787333   171A      1.792766   172A      1.803541  
     173A      1.816251   174A      1.819431   175A      1.829428  
     176A      1.831355   177A      1.835356   178A      1.843427  
     179A      1.846928   180A      1.871235   181A      1.879840  
     182A      1.890233   183A      1.898682   184A      1.916076  
     185A      1.931640   186A      1.936456   187A      1.945915  
     188A      1.954170   189A      1.979865   190A      1.987694  
     191A      2.018534   192A      2.026972   193A      2.032149  
     194A      2.036916   195A      2.052604   196A      2.064117  
     197A      2.079577   198A      2.092587   199A      2.097799  
     200A      2.117483   201A      2.127299   202A      2.139813  
     203A      2.154490   204A      2.179449   205A      2.184228  
     206A      2.201918   207A      2.208156   208A      2.218637  
     209A      2.238310   210A      2.262289   211A      2.281133  
     212A      2.313469   213A      2.322890   214A      2.341288  
     215A      2.367460   216A      2.380645   217A      2.428670  
     218A      2.433599   219A      2.463795   220A      2.508146  
     221A      2.542458   222A      2.581536   223A      2.594424  
     224A      2.607495   225A      2.624456   226A      2.633176  
     227A      2.637927   228A      2.638794   229A      2.650129  
     230A      2.705040   231A      2.713783   232A      2.759880  
     233A      2.816792   234A      2.829345   235A      2.857728  
     236A      2.881289   237A      2.894717   238A      2.966771  
     239A      2.981305   240A      3.041726   241A      3.058569  
     242A      3.131900   243A      3.785264  

    Final Occupation by Irrep:
              A 
    DOCC [    43 ]

  @DF-RHF Final Energy:  -462.79725966838851

   => Energetics <=

    Nuclear Repulsion Energy =            680.2318618984148770
    One-Electron Energy =               -1960.8647907942422535
    Two-Electron Energy =                 817.8356692274387569
    Total Energy =                       -462.7972596683885058

Computation Completed


Properties will be evaluated at   0.000000,   0.000000,   0.000000 [a0]

Properties computed using the SCF density matrix

  Nuclear Dipole Moment: [e a0]
     X:     8.1638      Y:     2.5526      Z:    -2.6180

  Electronic Dipole Moment: [e a0]
     X:    -6.4694      Y:    -1.7019      Z:     0.4430

  Dipole Moment: [e a0]
     X:     1.6944      Y:     0.8506      Z:    -2.1750     Total:     2.8854

  Dipole Moment: [D]
     X:     4.3069      Y:     2.1621      Z:    -5.5282     Total:     7.3338


*** tstop() called on skystd05.palmetto.clemson.edu at Thu Oct 14 20:34:12 2021
Module time:
	user time   =      13.66 seconds =       0.23 minutes
[...]
      10       -0.000778060925    -0.000838353990     0.000487907507
      11        0.000445078390     0.000122748140     0.000779731983
      12       -0.000242592102     0.000598057709    -0.000124669223
      13        0.000017796766     0.000128133714    -0.000450297901
      14       -0.000250445322     0.001118605293    -0.002158278278
      15        0.000281474686    -0.000368499671     0.001349642266
      16        0.001035972404    -0.000030654761     0.000169458224
      17       -0.000884324297    -0.000075359660     0.000031681948
      18        0.000228499688     0.000407218684    -0.000431424636
      19       -0.000933423739    -0.000282375468    -0.000933959666
      20       -0.000241494546     0.000555551694    -0.000297868750
      21       -0.000618154172     0.000478887455    -0.000465063280
      22        0.000006418100     0.000011701188    -0.000004788125
      23        0.000129235245    -0.000587288447     0.000536525588
      24        0.000463131083    -0.000415631096     0.000230042372
      25        0.001920221349    -0.003114533019    -0.000275249105
      26        0.003109076899    -0.003639222206     0.000378085100
      27        0.011487281406    -0.013992575559    -0.024526124607


*** tstop() called on skystd05.palmetto.clemson.edu at Thu Oct 14 20:46:17 2021
Module time:
	user time   =      64.08 seconds =       1.07 minutes
	system time =       3.14 seconds =       0.05 minutes
	total time  =         68 seconds =       1.13 minutes
Total time:
	user time   =     777.84 seconds =      12.96 minutes
	system time =      37.05 seconds =       0.62 minutes
	total time  =        822 seconds =      13.70 minutes

			-----------------------------------------
			 OPTKING 2.0: for geometry optimizations 
			  - R.A. King,  Bethel University        
			-----------------------------------------

	Previous internal coordinate definitions found.
	---Fragment 1 Geometry and Gradient---
	 C           1.7809374526        1.4397102503       -3.4889551511
	 C           1.3976468484        0.8227048758       -0.5959441952
	 C           2.7978395156        2.7274260403        1.1175335606
	 C           5.2833290323        1.3501299936        1.7785350071
	 C           5.9119685852       -0.2253345595       -0.6067996646
	 C           3.3072265045       -0.8873191527       -1.5847977746
	 H           2.8645156999       -2.7003150509       -2.4778705742
	 H           6.9591424349       -1.9892189146       -0.2356663694
	 H           7.0327795394        0.8454506259       -2.0026198710
	 H           4.9253823042        0.0417306356        3.3649081594
	 H           6.8276824949        2.6222401301        2.3436654272
	 H           1.6452676052        3.1820977383        2.7839071259
	 H           3.1484559247        4.5066853726        0.0890033520
	 C          -1.2269833805       -0.0917309070       -0.0461284259
	 C          -1.4955989871       -2.0969965413        1.6940674688
	 C          -3.9151622354       -2.9431860054        2.3661773406
	 C          -6.0647885434       -1.7934169229        1.3075409067
	 C          -5.7952303004        0.2098317946       -0.4170688141
	 C          -3.3798033043        1.0719969526       -1.0911046209
	 H          -3.1906076311        2.6530332523       -2.4133807855
	 H          -7.4677238480        1.1081909849       -1.2375204061
	 H          -7.9504155623       -2.4572485095        1.8286636614
	 H          -4.1213577631       -4.4995243922        3.7123615107
	 H           0.1814922066       -2.9855211679        2.5271378618
	 H           1.1588699755       -0.1550734146       -4.7143540099
	 H           3.7647124199        1.8603910726       -4.0577201771
	 H           0.8749187913        2.9225153874       -4.6668341901
	            -0.0181375888        0.0205854594        0.0461098070
	             0.0049665425       -0.0058592667        0.0063918921
	             0.0000995313       -0.0001979232       -0.0003120282
	            -0.0000108151        0.0005703580       -0.0006579364
	             0.0020087888       -0.0011483209        0.0002791042
	            -0.0055662654        0.0056145481       -0.0265541167
	             0.0008203742       -0.0007602650        0.0007216158
	             0.0007180745       -0.0002899862       -0.0000633147
	            -0.0000743328        0.0014089865       -0.0002103745
	            -0.0007780609       -0.0008383540        0.0004879075
	             0.0004450784        0.0001227481        0.0007797320
	            -0.0002425921        0.0005980577       -0.0001246692
	             0.0000177968        0.0001281337       -0.0004502979
	            -0.0002504453        0.0011186053       -0.0021582783
	             0.0002814747       -0.0003684997        0.0013496423
	             0.0010359724       -0.0000306548        0.0001694582
	            -0.0008843243       -0.0000753597        0.0000316819
	             0.0002284997        0.0004072187       -0.0004314246
	            -0.0009334237       -0.0002823755       -0.0009339597
	            -0.0002414945        0.0005555517       -0.0002978687
	            -0.0006181542        0.0004788875       -0.0004650633
	             0.0000064181        0.0000117012       -0.0000047881
	             0.0001292352       -0.0005872884        0.0005365256
	             0.0004631311       -0.0004156311        0.0002300424
	             0.0019202213       -0.0031145330       -0.0002752491
	             0.0031090769       -0.0036392222        0.0003780851
	             0.0114872814       -0.0139925756       -0.0245261246

	---Fragment 1 Intrafragment Coordinates---
	 - Coordinate -           - BOHR/RAD -       - ANG/DEG -
	 R(1,2)           =         2.982804	       1.578432
	 R(1,6)           =         3.372008	       1.784390
	 R(1,25)          =         2.105209	       1.114029
	 R(1,26)          =         2.106141	       1.114522
	 R(1,27)          =         2.099281	       1.110892
	 R(2,3)           =         2.919676	       1.545026
	 R(2,6)           =         2.747455	       1.453890
	 R(2,14)          =         2.833227	       1.499279
	 R(3,4)           =         2.917452	       1.543849
	 R(3,12)          =         2.076523	       1.098849
	 R(3,13)          =         2.084843	       1.103251
	 R(4,5)           =         2.926960	       1.548881
	 R(4,10)          =         2.087250	       1.104525
	 R(4,11)          =         2.079102	       1.100213
	 R(5,6)           =         2.859962	       1.513427
	 R(5,8)           =         2.084611	       1.103128
	 R(5,9)           =         2.085932	       1.103828
	 R(6,7)           =         2.068943	       1.094838
	 R(14,15)         =         2.668619	       1.412172
	 R(14,19)         =         2.660991	       1.408136
	 R(15,16)         =         2.649916	       1.402275
	 R(15,24)         =         2.072708	       1.096830
	 R(16,17)         =         2.657738	       1.406415
	 R(16,23)         =         2.068071	       1.094376
	 R(17,18)         =         2.657056	       1.406053
	 R(17,22)         =         2.065873	       1.093213
	 R(18,19)         =         2.651781	       1.403262
	 R(18,21)         =         2.068194	       1.094441
	 R(19,20)         =         2.069755	       1.095267
	 B(1,2,3)         =         1.952643	     111.878177
	 B(1,2,6)         =         1.255975	      71.962041
	 B(1,2,14)        =         1.954137	     111.963776
	 B(1,6,2)         =         0.999318	      57.256705
	 B(1,6,5)         =         2.032653	     116.462458
	 B(1,6,7)         =         1.838089	     105.314733
	 B(2,1,6)         =         0.886300	      50.781254
	 B(2,1,25)        =         1.949682	     111.708565
	 B(2,1,26)        =         2.008955	     115.104635
	 B(2,1,27)        =         2.258606	     129.408618
	 B(2,3,4)         =         1.806527	     103.506361
	 B(2,3,12)        =         1.925820	     110.341330
	 B(2,3,13)        =         1.926104	     110.357614
	 B(2,6,5)         =         1.945362	     111.461051
	 B(2,6,7)         =         2.155609	     123.507281
	 B(2,14,15)       =         2.051403	     117.536746
	 B(2,14,19)       =         2.131884	     122.147942
	 B(3,2,6)         =         1.858703	     106.495817
	 B(3,2,14)        =         2.142340	     122.747025
	 B(3,4,5)         =         1.825997	     104.621918
	 B(3,4,10)        =         1.898667	     108.785625
	 B(3,4,11)        =         1.988380	     113.925782
	 B(4,3,12)        =         1.976231	     113.229696
	 B(4,3,13)        =         1.951306	     111.801572
	 B(4,5,6)         =         1.779981	     101.985404
	 B(4,5,8)         =         2.002309	     114.723866
	 B(4,5,9)         =         1.965384	     112.608215
	 B(5,4,10)        =         1.895271	     108.591050
	 B(5,4,11)        =         1.972860	     113.036558
	 B(5,6,7)         =         2.147574	     123.046920
	 B(6,1,25)        =         1.510425	      86.540987
	 B(6,1,26)        =         1.434374	      82.183571
	 B(6,1,27)        =         3.114763	     178.462787
	 B(6,2,14)        =         2.109270	     120.852249
	 B(6,5,8)         =         1.899202	     108.816273
	 B(6,5,9)         =         1.959903	     112.294192
	 B(8,5,9)         =         1.858318	     106.473794
	 B(10,4,11)       =         1.880042	     107.718473
	 B(12,3,13)       =         1.877979	     107.600278
	 B(14,15,16)      =         2.091224	     119.818313
	 B(14,15,24)      =         2.097594	     120.183261
	 B(14,19,18)      =         2.088534	     119.664166
	 B(14,19,20)      =         2.107135	     120.729932
	 B(15,14,19)      =         2.098169	     120.216205
	 B(15,16,17)      =         2.093628	     119.956071
	 B(15,16,23)      =         2.090299	     119.765309
	 B(16,15,24)      =         2.094354	     119.997622
	 B(16,17,18)      =         2.097452	     120.175153
	 B(16,17,22)      =         2.092963	     119.917929
	 B(17,16,23)      =         2.099257	     120.278567
	 B(17,18,19)      =         2.097300	     120.166466
	 B(17,18,21)      =         2.097783	     120.194123
	 B(18,17,22)      =         2.092770	     119.906872
	 B(18,19,20)      =         2.087486	     119.604162
	 B(19,18,21)      =         2.088099	     119.639245
	 B(25,1,26)       =         1.846727	     105.809649
	 B(25,1,27)       =         1.651841	      94.643494
	 B(26,1,27)       =         1.684948	      96.540414
	 D(1,2,3,4)       =        -1.705186	     -97.699954
	 D(1,2,3,12)      =         2.458404	     140.856153
	 D(1,2,3,13)      =         0.385206	      22.070686
	 D(1,2,6,5)       =         1.892794	     108.449080
	 D(1,2,6,7)       =        -1.521633	     -87.183133
	 D(1,2,14,15)     =         2.439605	     139.779077
	 D(1,2,14,19)     =        -0.765084	     -43.836102
	 D(1,6,2,3)       =        -1.888390	    -108.196765
	 D(1,6,2,14)      =         1.837611	     105.287338
	 D(1,6,5,4)       =         1.455198	      83.376691
	 D(1,6,5,8)       =        -2.705600	    -155.019454
	 D(1,6,5,9)       =        -0.652862	     -37.406224
	 D(2,1,6,5)       =        -1.737372	     -99.544063
	 D(2,1,6,7)       =         2.099483	     120.291496
	 D(2,3,4,5)       =         0.583115	      33.410021
	 D(2,3,4,10)      =        -1.439678	     -82.487459
	 D(2,3,4,11)      =         2.746107	     157.340364
	 D(2,6,1,25)      =        -2.126611	    -121.845810
	 D(2,6,1,26)      =         2.298027	     131.667252
	 D(2,6,1,27)      =         1.705517	      97.718946
	 D(2,6,5,4)       =         0.355095	      20.345461
	 D(2,6,5,8)       =         2.477483	     141.949316
	 D(2,6,5,9)       =        -1.752964	    -100.437453
	 D(2,14,15,16)    =         3.088693	     176.969065
	 D(2,14,15,24)    =        -0.047205	      -2.704670
	 D(2,14,19,18)    =        -3.089686	    -177.025951
	 D(2,14,19,20)    =         0.043496	       2.492161
	 D(3,2,1,6)       =         1.763009	     101.012977
	 D(3,2,1,25)      =         2.912733	     166.887322
	 D(3,2,1,26)      =         0.806330	      46.199279
	 D(3,2,1,27)      =        -1.344171	     -77.015334
	 D(3,2,6,5)       =         0.004404	       0.252314
	 D(3,2,6,7)       =         2.873163	     164.620102
	 D(3,2,14,15)     =        -1.444018	     -82.736111
	 D(3,2,14,19)     =         1.634478	      93.648710
	 D(3,4,5,6)       =        -0.570657	     -32.696252
	 D(3,4,5,8)       =        -2.620290	    -150.131543
	 D(3,4,5,9)       =         1.533584	      87.867893
	 D(4,3,2,6)       =        -0.365531	     -20.943377
	 D(4,3,2,14)      =         2.177886	     124.783670
	 D(4,5,6,7)       =        -2.515135	    -144.106628
	 D(5,4,3,12)      =         2.668450	     152.890936
	 D(5,4,3,13)      =        -1.489948	     -85.367718
	 D(5,6,1,25)      =         2.419203	     138.610127
	 D(5,6,1,26)      =         0.560655	      32.123189
	 D(5,6,1,27)      =        -0.031854	      -1.825117
	 D(5,6,2,14)      =        -2.552781	    -146.263582
	 D(6,1,2,14)      =        -2.037795	    -116.757073
	 D(6,2,1,25)      =         1.149724	      65.874345
	 D(6,2,1,26)      =        -0.956680	     -54.813698
	 D(6,2,1,27)      =        -3.107180	    -178.028311
	 D(6,2,3,12)      =        -2.485127	    -142.387270
	 D(6,2,3,13)      =         1.724861	      98.827263
	 D(6,2,14,15)     =         1.017360	      58.290445
	 D(6,2,14,19)     =        -2.187329	    -125.324734
	 D(6,5,4,10)      =         1.454494	      83.336379
	 D(6,5,4,11)      =        -2.743565	    -157.194715
	 D(7,6,1,25)      =        -0.027128	      -1.554314
	 D(7,6,1,26)      =        -1.885676	    -108.041252
	 D(7,6,1,27)      =        -2.478185	    -141.989558
	 D(7,6,2,14)      =         0.315978	      18.104205
	 D(7,6,5,8)       =        -0.392747	     -22.502773
	 D(7,6,5,9)       =         1.659991	      95.110457
	 D(8,5,4,10)      =        -0.595138	     -34.098912
	 D(8,5,4,11)      =         1.489987	      85.369994
	 D(9,5,4,10)      =        -2.724450	    -156.099476
	 D(9,5,4,11)      =        -0.639324	     -36.630570
	 D(10,4,3,12)     =         0.645658	      36.993456
	 D(10,4,3,13)     =         2.770445	     158.734802
	 D(11,4,3,12)     =        -1.451743	     -83.178721
	 D(11,4,3,13)     =         0.673045	      38.562625
	 D(12,3,2,14)     =         0.058290	       3.339776
	 D(13,3,2,14)     =        -2.014907	    -115.445690
	 D(14,2,1,25)     =        -0.888071	     -50.882728
	 D(14,2,1,26)     =        -2.994475	    -171.570771
	 D(14,2,1,27)     =         1.138210	      65.214616
	 D(14,15,16,17)   =        -0.000427	      -0.024447
	 D(14,15,16,23)   =         3.139708	     179.892025
	 D(14,19,18,17)   =         0.008303	       0.475721
	 D(14,19,18,21)   =        -3.135876	    -179.672475
	 D(15,14,19,18)   =        -0.012841	      -0.735735
	 D(15,14,19,20)   =         3.120341	     178.782378
	 D(15,16,17,18)   =        -0.004101	      -0.234997
	 D(15,16,17,22)   =         3.138864	     179.843686
	 D(16,15,14,19)   =         0.008921	       0.511124
	 D(16,17,18,19)   =         0.000144	       0.008277
	 D(16,17,18,21)   =        -3.138847	    -179.842699
	 D(17,16,15,24)   =         3.135482	     179.649901
	 D(17,18,19,20)   =        -3.124975	    -179.047864
	 D(18,17,16,23)   =         3.138957	     179.848965
	 D(19,14,15,24)   =        -3.126977	    -179.162612
	 D(19,18,17,22)   =         3.140364	     179.929604
	 D(20,19,18,21)   =         0.014031	       0.803941
	 D(21,18,17,22)   =         0.001372	       0.078627
	 D(22,17,16,23)   =        -0.001263	      -0.072353
	 D(23,16,15,24)   =        -0.007568	      -0.433628

	Current energy   :      -464.5013187746

	Energy change for the previous step:
		Projected    :        -0.0026823997
		Actual       :        -0.0032167419

	Performing Bofill update.
	Previous computed or guess Hessian on step 1.
	Steps to be used in Hessian update: 9 8
	Taking PRFO optimization step.
	Maximizing along 1 lowest eigenvalue of Hessian.

 RFO min eigenvalues
 -0.002206 -0.000000 -0.000000 -0.000000 -0.000000 -0.000000 -0.000000 -0.000000
 -0.000000 -0.000000 -0.000000 -0.000000 -0.000000 -0.000000 -0.000000 -0.000000
 -0.000000 -0.000000 -0.000000 -0.000000 -0.000000 -0.000000 -0.000000 -0.000000
 -0.000000 -0.000000 -0.000000 -0.000000 -0.000000 -0.000000 -0.000000 -0.000000
 -0.000000 -0.000000 -0.000000 -0.000000 -0.000000 -0.000000 -0.000000 -0.000000
 -0.000000 -0.000000 -0.000000 -0.000000 -0.000000 -0.000000 -0.000000 -0.000000
 -0.000000 -0.000000 -0.000000 -0.000000 -0.000000  0.000000  0.000000  0.000000
  0.000000  0.000000  0.000000  0.000000  0.000000  0.000000  0.000000  0.000000
  0.000000  0.000000  0.000000  0.000000  0.000000  0.000000  0.000000  0.000000
  0.000000  0.000000  0.000000  0.000000  0.000000  0.000000  0.000000  0.000000
  0.000000  0.000000  0.000000  0.000000  0.000000  0.000000  0.000000  0.000000
  0.000000  0.000000  0.000000  0.000000  0.000000  0.000000  0.000000  0.000000
  0.000000  0.000000  0.000000  0.000000  0.000000  0.000000  0.000000  0.000000
  0.000000  0.000000  0.000000  0.000000  0.000000  0.003435  0.005575  0.008019
  0.012162  0.012466  0.015217  0.016974  0.017235  0.017359  0.017452  0.017536
  0.017576  0.017608  0.017656  0.017771  0.020999  0.027609  0.029191  0.036949
  0.042858  0.050106  0.053933  0.057992  0.061104  0.064419  0.068890  0.069801
  0.070218  0.078649  0.081035  0.089297  0.096036  0.098705  0.105057  0.110599
  0.159946  0.159983  0.159998  0.159998  0.160011  0.167784  0.201071  0.203905
  0.219998  0.220027  0.234564  0.249746  0.263579  0.266246  0.276296  0.290665
  0.300777  0.331163  0.331299  0.331540  0.331827  0.333281  0.335054  0.335228
  0.341743  0.342652  0.343067  0.343075  0.343448  0.343505  0.343665  0.343923
  0.374288  0.406932  0.407804  0.442400  0.445210  0.448690  0.450741

 RFO max eigenvalues
 -0.014886  0.000461
	Change in coordinate exceeds step limit of    0.50000.
	Scaling displacements by    0.98838
	|RFO target step|  :        0.5000000000
	RFO gradient       :       -0.0034492964
	RFO hessian        :        0.0049352134
	Projected Delta(E) :       -0.0008861972

	Back-transformation to cartesian coordinates...
	The INTCO_EXCEPTion handler:
	TORS::compute_val: unable to compute torsion value
	Dynamic level is 0.
	exc.g_really_quit() is 0.

  **** Optimization has failed! (in 10 steps) ****
			--------------------------
			 OPTKING Finished Execution 
			--------------------------
	Removing binary optimization data file.
	Cleaning optimization helper files.

PsiException: Could not converge geometry optimization in 9 iterations.


Traceback (most recent call last):
  File "/home/maxbuskirk/.conda/envs/psifour/bin/psi4", line 333, in <module>
    exec(content)
  File "<string>", line 58, in <module>
  File "/home/maxbuskirk/.conda/envs/psifour/lib//python3.9/site-packages/psi4/driver/driver.py", line 1433, in optimize
    raise OptimizationConvergenceError("""geometry optimization""", n - 1, wfn)

psi4.driver.p4util.exceptions.OptimizationConvergenceError: Could not converge geometry optimization in 9 iterations.


Printing out the relevant lines from the Psithon --> Python processed input file:
    core.set_global_option("BASIS", "cc-pVDZ")
    core.set_global_option("REFERENCE", "rhf")
    core.set_global_option("GEOM_MAXITER", 400)
    mol.update_geometry()
    mol.symmetrize(1e-3)
--> e, wfn = optimize('mp2', return_wfn=True)
    oeprop(wfn, "MULLIKEN_CHARGES")
    mol.print_out()
    print_variables()

!------------------------------------------------------------!
!                                                            !
!  Could not converge geometry optimization in 9 iterations. !
!                                                            !
!------------------------------------------------------------!

    Psi4 stopped on: Thursday, 14 October 2021 08:46PM
    Psi4 wall time for execution: 0:13:42.81

*** Psi4 encountered an error. Buy a developer more coffee!
*** Resources and help at github.com/psi4/psi4.
