
    -----------------------------------------------------------------------
          Psi4: An Open-Source Ab Initio Electronic Structure Package
                               Psi4 1.4 release

                         Git: Rev {HEAD} 9485035 


    D. G. A. Smith, L. A. Burns, A. C. Simmonett, R. M. Parrish,
    M. C. Schieber, R. Galvelis, P. Kraus, H. Kruse, R. Di Remigio,
    A. Alenaizan, A. M. James, S. Lehtola, J. P. Misiewicz, M. Scheurer,
    R. A. Shaw, J. B. Schriber, Y. Xie, Z. L. Glick, D. A. Sirianni,
    J. S. O'Brien, J. M. Waldrop, A. Kumar, E. G. Hohenstein,
    B. P. Pritchard, B. R. Brooks, H. F. Schaefer III, A. Yu. Sokolov,
    K. Patkowski, A. E. DePrince III, U. Bozkaya, R. A. King,
    F. A. Evangelista, J. M. Turney, T. D. Crawford, C. D. Sherrill,
    J. Chem. Phys. 152(18) 184108 (2020). https://doi.org/10.1063/5.0006002

                            Additional Code Authors
    E. T. Seidl, C. L. Janssen, E. F. Valeev, M. L. Leininger,
    J. F. Gonthier, R. M. Richard, H. R. McAlexander, M. Saitow, X. Wang,
    P. Verma, and M. H. Lechner

             Previous Authors, Complete List of Code Contributors,
                       and Citations for Specific Modules
    https://github.com/psi4/psi4/blob/master/codemeta.json
    https://github.com/psi4/psi4/graphs/contributors
    http://psicode.org/psi4manual/master/introduction.html#citing-psifour

    -----------------------------------------------------------------------


    Psi4 started on: Thursday, 14 October 2021 08:39PM

    Process ID: 2542930
    Host:       skystd06.palmetto.clemson.edu
    PSIDATADIR: /home/maxbuskirk/.conda/envs/psifour/share/psi4
    Memory:     500.0 MiB
    Threads:    1
    
  ==> Input File <==

--------------------------------------------------------------------------
memory 32 GB

molecule mol {
1 1
C    -2.874966     0.006171     1.259405
 C    -1.728706    -0.524442     1.881860
 C    -1.897922    -1.432788     2.947957
 C    -3.180189    -1.803555     3.379282
 C    -4.316803    -1.270520     2.747325
 C    -4.160783    -0.365157     1.685631
 C    -0.355130    -0.111221     1.467412
 C     0.472970     0.770684     2.420947
 C     1.736425    -0.059411     2.722336
 C     2.015823    -0.834214     1.418049
 C     0.628426    -1.099567     0.833902
 C     0.000000    -0.000000    -0.000000
 H     0.304307    -2.126282     0.639416
 H     2.566659    -1.770405     1.601511
 H     2.624553    -0.226557     0.724632
 H     1.501358    -0.784172     3.522038
 H     2.590414     0.550011     3.063525
 H    -0.098499     1.011312     3.331280
 H     0.737217     1.726550     1.933471
 H    -2.753562     0.718077     0.436601
 H    -5.041549     0.054502     1.189751
Cl    -5.908684    -1.733918     3.275318
 H    -3.294311    -2.513716     4.204142
 H    -1.011830    -1.858199     3.431882
 H    -0.760870    -0.299389    -0.726353
 H     0.641316     0.832055    -0.309810
 H    -0.212209     0.892494    -0.592441
}

set scf_type df
set opt_type ts
set basis cc-pVDZ
set reference rhf
set geom_maxiter 400


mol.update_geometry()
mol.symmetrize(1e-3)

e, wfn = optimize('mp2', return_wfn=True)
oeprop(wfn, "MULLIKEN_CHARGES")
mol.print_out()
print_variables()
--------------------------------------------------------------------------

  Memory set to  29.802 GiB by Python driver.

Scratch directory: /tmp/
gradient() will perform analytic gradient computation.

*** tstart() called on skystd06.palmetto.clemson.edu
*** at Thu Oct 14 20:39:03 2021

   => Loading Basis Set <=

    Name: CC-PVDZ
    Role: ORBITAL
    Keyword: BASIS
    atoms 1-12         entry C          line   138 file /home/maxbuskirk/.conda/envs/psifour/share/psi4/basis/cc-pvdz.gbs 
    atoms 13-21, 23-27 entry H          line    22 file /home/maxbuskirk/.conda/envs/psifour/share/psi4/basis/cc-pvdz.gbs 
    atoms 22           entry CL         line   658 file /home/maxbuskirk/.conda/envs/psifour/share/psi4/basis/cc-pvdz.gbs 


         ---------------------------------------------------------
                                   SCF
               by Justin Turney, Rob Parrish, Andy Simmonett
                          and Daniel G. A. Smith
                              RHF Reference
                        1 Threads,  30517 MiB Core
         ---------------------------------------------------------

  ==> Geometry <==

    Molecular point group: c1
    Full point group: C1

    Geometry (in Angstrom), charge = 1, multiplicity = 1:

       Center              X                  Y                   Z               Mass       
    ------------   -----------------  -----------------  -----------------  -----------------
         C           -0.944276548542     0.757911048202    -0.865787109349    12.000000000000
         C            0.201983451458     0.227298048202    -0.243332109349    12.000000000000
         C            0.032767451458    -0.681047951798     0.822764890651    12.000000000000
         C           -1.249499548542    -1.051814951798     1.254089890651    12.000000000000
         C           -2.386113548542    -0.518779951798     0.622132890651    12.000000000000
         C           -2.230093548542     0.386583048202    -0.439561109349    12.000000000000
         C            1.575559451458     0.640519048202    -0.657780109349    12.000000000000
         C            2.403659451458     1.522424048202     0.295754890651    12.000000000000
         C            3.667114451458     0.692329048202     0.597143890651    12.000000000000
         C            3.946512451458    -0.082473951798    -0.707143109349    12.000000000000
         C            2.559115451458    -0.347826951798    -1.291290109349    12.000000000000
         C            1.930689451458     0.751740048202    -2.125192109349    12.000000000000
         H            2.234996451458    -1.374541951798    -1.485776109349     1.007825032230
         H            4.497348451458    -1.018664951798    -0.523681109349     1.007825032230
         H            4.555242451458     0.525183048202    -1.400560109349     1.007825032230
         H            3.432047451458    -0.032431951798     1.396845890651     1.007825032230
         H            4.521103451458     1.301751048202     0.938332890651     1.007825032230
         H            1.832190451458     1.763052048202     1.206087890651     1.007825032230
         H            2.667906451458     2.478290048202    -0.191721109349     1.007825032230
         H           -0.822872548542     1.469817048202    -1.688591109349     1.007825032230
         H           -3.110859548542     0.806242048202    -0.935441109349     1.007825032230
         CL          -3.977994548542    -0.982177951798     1.150125890651    34.968852682000
         H           -1.363621548542    -1.761975951798     2.078949890651     1.007825032230
         H            0.918859451458    -1.106458951798     1.306689890651     1.007825032230
         H            1.169819451458     0.452351048202    -2.851545109349     1.007825032230
         H            2.572005451458     1.583795048202    -2.435002109349     1.007825032230
         H            1.718480451458     1.644234048202    -2.717633109349     1.007825032230

  Running in c1 symmetry.

  Rotational constants: A =      0.07019  B =      0.01064  C =      0.01000 [cm^-1]
  Rotational constants: A =   2104.20837  B =    318.84894  C =    299.84957 [MHz]
  Nuclear repulsion =  844.849377627947661

  Charge       = 1
  Multiplicity = 1
  Electrons    = 102
  Nalpha       = 51
  Nbeta        = 51

  ==> Algorithm <==

  SCF Algorithm Type is DF.
  DIIS enabled.
  MOM disabled.
  Fractional occupation disabled.
  Guess Type is SAD.
  Energy threshold   = 1.00e-10
  Density threshold  = 1.00e-10
  Integral threshold = 1.00e-12

  ==> Primary Basis <==

  Basis Set: CC-PVDZ
    Blend: CC-PVDZ
    Number of shells: 122
    Number of basis functions: 256
    Number of Cartesian functions: 269
    Spherical Harmonics?: true
    Max angular momentum: 2

   => Loading Basis Set <=

    Name: (CC-PVDZ AUX)
    Role: JKFIT
    Keyword: DF_BASIS_SCF
    atoms 1-12         entry C          line   121 file /home/maxbuskirk/.conda/envs/psifour/share/psi4/basis/cc-pvdz-jkfit.gbs 
    atoms 13-21, 23-27 entry H          line    51 file /home/maxbuskirk/.conda/envs/psifour/share/psi4/basis/cc-pvdz-jkfit.gbs 
    atoms 22           entry CL         line   667 file /home/maxbuskirk/.conda/envs/psifour/share/psi4/basis/cc-pvdz-jkfit.gbs 

  ==> Integral Setup <==

  DFHelper Memory: AOs need 0.577 GiB; user supplied 22.352 GiB. Using in-core AOs.

  ==> MemDFJK: Density-Fitted J/K Matrices <==

    J tasked:                   Yes
    K tasked:                   Yes
    wK tasked:                   No
    OpenMP threads:               1
    Memory [MiB]:             22888
    Algorithm:                 Core
    Schwarz Cutoff:           1E-12
    Mask sparsity (%):      10.8765
    Fitting Condition:        1E-10

   => Auxiliary Basis Set <=

  Basis Set: (CC-PVDZ AUX)
    Blend: CC-PVDZ-JKFIT
    Number of shells: 450
    Number of basis functions: 1274
    Number of Cartesian functions: 1452
    Spherical Harmonics?: true
    Max angular momentum: 3

  Minimum eigenvalue in the overlap matrix is 3.0497323110E-04.
  Reciprocal condition number of the overlap matrix is 4.2932807760E-05.
    Using symmetric orthogonalization.

  ==> Pre-Iterations <==

  SCF Guess: Superposition of Atomic Densities via on-the-fly atomic UHF (no occupation information).

   -------------------------
    Irrep   Nso     Nmo    
   -------------------------
     A        256     256 
   -------------------------
    Total     256     256
   -------------------------

  ==> Iterations <==

                           Total Energy        Delta E     RMS |[F,P]|

   @DF-RHF iter SAD:  -922.26165503091829   -9.22262e+02   0.00000e+00 
   @DF-RHF iter   1:  -921.44672959028799    8.14925e-01   2.25806e-03 DIIS
   @DF-RHF iter   2:  -921.65702265659218   -2.10293e-01   9.84593e-04 DIIS
   @DF-RHF iter   3:  -921.69099146792325   -3.39688e-02   2.91230e-04 DIIS
   @DF-RHF iter   4:  -921.69509982007935   -4.10835e-03   9.96521e-05 DIIS
   @DF-RHF iter   5:  -921.69550476738800   -4.04947e-04   2.86083e-05 DIIS
   @DF-RHF iter   6:  -921.69555132744836   -4.65601e-05   8.56016e-06 DIIS
   @DF-RHF iter   7:  -921.69555736944960   -6.04200e-06   3.20684e-06 DIIS
   @DF-RHF iter   8:  -921.69555842452905   -1.05508e-06   1.56065e-06 DIIS
   @DF-RHF iter   9:  -921.69555870902229   -2.84493e-07   6.39441e-07 DIIS
   @DF-RHF iter  10:  -921.69555877129142   -6.22691e-08   3.06823e-07 DIIS
   @DF-RHF iter  11:  -921.69555878931237   -1.80210e-08   1.36936e-07 DIIS
   @DF-RHF iter  12:  -921.69555879235668   -3.04431e-09   3.96622e-08 DIIS
   @DF-RHF iter  13:  -921.69555879257780   -2.21121e-10   1.32261e-08 DIIS
   @DF-RHF iter  14:  -921.69555879259406   -1.62572e-11   4.32147e-09 DIIS
   @DF-RHF iter  15:  -921.69555879259644   -2.38742e-12   1.40633e-09 DIIS
   @DF-RHF iter  16:  -921.69555879259656   -1.13687e-13   5.33173e-10 DIIS
   @DF-RHF iter  17:  -921.69555879259758   -1.02318e-12   2.10951e-10 DIIS
   @DF-RHF iter  18:  -921.69555879259735    2.27374e-13   7.96443e-11 DIIS
  Energy and wave function converged.


  ==> Post-Iterations <==

    Orbital Energies [Eh]
    ---------------------

    Doubly Occupied:                                                      

       1A   -104.933795     2A    -11.497827     3A    -11.469863  
       4A    -11.446761     5A    -11.425007     6A    -11.399626  
       7A    -11.396000     8A    -11.395802     9A    -11.387777  
      10A    -11.383995    11A    -11.381315    12A    -11.377608  
      13A    -11.377006    14A    -10.660375    15A     -8.128007  
      16A     -8.124379    17A     -8.124321    18A     -1.413334  
      19A     -1.302156    20A     -1.256863    21A     -1.236585  
      22A     -1.165053    23A     -1.150499    24A     -1.149280  
      25A     -1.100137    26A     -0.974599    27A     -0.969752  
      28A     -0.964342    29A     -0.920245    30A     -0.883645  
      31A     -0.860371    32A     -0.801553    33A     -0.782259  
      34A     -0.773801    35A     -0.762117    36A     -0.754903  
      37A     -0.725712    38A     -0.717480    39A     -0.682221  
      40A     -0.674429    41A     -0.656601    42A     -0.647661  
      43A     -0.644243    44A     -0.636373    45A     -0.626654  
      46A     -0.623602    47A     -0.594381    48A     -0.568405  
      49A     -0.551157    50A     -0.469288    51A     -0.447731  

    Virtual:                                                              

      52A     -0.076028    53A     -0.030669    54A     -0.010750  
      55A     -0.006013    56A      0.020548    57A      0.044369  
      58A      0.065863    59A      0.071098    60A      0.087105  
      61A      0.094872    62A      0.109867    63A      0.114894  
      64A      0.120280    65A      0.135661    66A      0.136558  
      67A      0.147241    68A      0.152833    69A      0.169869  
      70A      0.183959    71A      0.205314    72A      0.212405  
      73A      0.220218    74A      0.254431    75A      0.259139  
      76A      0.293501    77A      0.312418    78A      0.321638  
      79A      0.334123    80A      0.344929    81A      0.358407  
      82A      0.401554    83A      0.430641    84A      0.452941  
      85A      0.464780    86A      0.483717    87A      0.496652  
      88A      0.506940    89A      0.514117    90A      0.519900  
      91A      0.527480    92A      0.535039    93A      0.557587  
      94A      0.565425    95A      0.572162    96A      0.582579  
      97A      0.590227    98A      0.599586    99A      0.607876  
     100A      0.610021   101A      0.618297   102A      0.625663  
     103A      0.645517   104A      0.649700   105A      0.660239  
     106A      0.669582   107A      0.675647   108A      0.683251  
     109A      0.689542   110A      0.695641   111A      0.701726  
     112A      0.706229   113A      0.710361   114A      0.722745  
     115A      0.733275   116A      0.744245   117A      0.747940  
     118A      0.751197   119A      0.763191   120A      0.770427  
     121A      0.785767   122A      0.789425   123A      0.791316  
     124A      0.794562   125A      0.799906   126A      0.822595  
     127A      0.831564   128A      0.856904   129A      0.873480  
     130A      0.878920   131A      0.886602   132A      0.899705  
     133A      0.953159   134A      0.977462   135A      0.986107  
     136A      1.008620   137A      1.016080   138A      1.027425  
     139A      1.039244   140A      1.065239   141A      1.083500  
     142A      1.096700   143A      1.105340   144A      1.106893  
     145A      1.137265   146A      1.147034   147A      1.176960  
     148A      1.179909   149A      1.197607   150A      1.216590  
     151A      1.227959   152A      1.257886   153A      1.266894  
     154A      1.301020   155A      1.305720   156A      1.324026  
     157A      1.355084   158A      1.360969   159A      1.369454  
     160A      1.391532   161A      1.427703   162A      1.443485  
     163A      1.457732   164A      1.479837   165A      1.500162  
     166A      1.526152   167A      1.545050   168A      1.561149  
     169A      1.580256   170A      1.587766   171A      1.605529  
     172A      1.624073   173A      1.629491   174A      1.651699  
     175A      1.661069   176A      1.685144   177A      1.687700  
     178A      1.695522   179A      1.703671   180A      1.734171  
     181A      1.738865   182A      1.752940   183A      1.767542  
     184A      1.775807   185A      1.779405   186A      1.789095  
     187A      1.795912   188A      1.800594   189A      1.812714  
     190A      1.820324   191A      1.835256   192A      1.839479  
     193A      1.851271   194A      1.858564   195A      1.871817  
     196A      1.884782   197A      1.890848   198A      1.896699  
     199A      1.923895   200A      1.929062   201A      1.934510  
     202A      1.945220   203A      1.953357   204A      1.976693  
     205A      1.983107   206A      2.003693   207A      2.011428  
     208A      2.030135   209A      2.051477   210A      2.079399  
     211A      2.080190   212A      2.098199   213A      2.107741  
     214A      2.118847   215A      2.121503   216A      2.144939  
     217A      2.162163   218A      2.183770   219A      2.199913  
     220A      2.227463   221A      2.233697   222A      2.257628  
     223A      2.271610   224A      2.282907   225A      2.292443  
     226A      2.305002   227A      2.311445   228A      2.333643  
     229A      2.372463   230A      2.407870   231A      2.433931  
     232A      2.447125   233A      2.508466   234A      2.527334  
     235A      2.548571   236A      2.563210   237A      2.590173  
     238A      2.607863   239A      2.615607   240A      2.624808  
     241A      2.637288   242A      2.642093   243A      2.707259  
     244A      2.713190   245A      2.750989   246A      2.790508  
     247A      2.817852   248A      2.830440   249A      2.874131  
     250A      2.889115   251A      2.916838   252A      2.972323  
     253A      3.046463   254A      3.106456   255A      3.115029  
     256A      3.626401  

    Final Occupation by Irrep:
              A 
    DOCC [    51 ]

  @DF-RHF Final Energy:  -921.69555879259735

   => Energetics <=

    Nuclear Repulsion Energy =            844.8493776279476606
    One-Electron Energy =               -2922.2960784067718123
    Two-Electron Energy =                1155.7511419862269122
    Total Energy =                       -921.6955587925974669

Computation Completed


Properties will be evaluated at   0.000000,   0.000000,   0.000000 [a0]

Properties computed using the SCF density matrix

  Nuclear Dipole Moment: [e a0]
     X:    26.9121      Y:     7.2089      Z:    -7.8992

  Electronic Dipole Moment: [e a0]
     X:   -23.0025      Y:    -5.7150      Z:     5.0230

  Dipole Moment: [e a0]
     X:     3.9096      Y:     1.4939      Z:    -2.8762     Total:     5.0783

  Dipole Moment: [D]
     X:     9.9372      Y:     3.7972      Z:    -7.3106     Total:    12.9078


*** tstop() called on skystd06.palmetto.clemson.edu at Thu Oct 14 20:39:23 2021
Module time:
	user time   =      19.26 seconds =       0.32 minutes
	system time =       0.82 seconds =       0.01 minutes
	total time  =         20 seconds =       0.33 minutes
Total time:
	user time   =      19.26 seconds =       0.32 minutes
	system time =       0.82 seconds =       0.01 minutes
	total time  =         20 seconds =       0.33 minutes

*** tstart() called on skystd06.palmetto.clemson.edu
*** at Thu Oct 14 20:39:23 2021


  //>>>>>>>>>>>>>>>>>>>>>>>>>>>>>>>>>>>//
  //               DFMP2               //
  //<<<<<<<<<<<<<<<<<<<<<<<<<<<<<<<<<<<//

   => Loading Basis Set <=

    Name: (CC-PVDZ AUX)
    Role: RIFIT
    Keyword: DF_BASIS_MP2
    atoms 1-12         entry C          line   159 file /home/maxbuskirk/.conda/envs/psifour/share/psi4/basis/cc-pvdz-ri.gbs 
    atoms 13-21, 23-27 entry H          line    19 file /home/maxbuskirk/.conda/envs/psifour/share/psi4/basis/cc-pvdz-ri.gbs 
    atoms 22           entry CL         line   649 file /home/maxbuskirk/.conda/envs/psifour/share/psi4/basis/cc-pvdz-ri.gbs 

	 --------------------------------------------------------
	                          DF-MP2                         
	      2nd-Order Density-Fitted Moller-Plesset Theory     
	              RMP2 Wavefunction,   1 Threads             
	                                                         
	        Rob Parrish, Justin Turney, Andy Simmonett,      
	           Ed Hohenstein, and C. David Sherrill          
	 --------------------------------------------------------

   => Auxiliary Basis Set <=

  Basis Set: (CC-PVDZ AUX)
    Blend: CC-PVDZ-RI
    Number of shells: 324
    Number of basis functions: 944
    Number of Cartesian functions: 1092
    Spherical Harmonics?: true
    Max angular momentum: 3

	 --------------------------------------------------------
	                 NBF =   256, NAUX =   944
	 --------------------------------------------------------
	   CLASS    FOCC     OCC    AOCC    AVIR     VIR    FVIR
	   PAIRS       0      51      51     205     205       0
	 --------------------------------------------------------

  DFHelper Memory: AOs need 0.577 GiB; user supplied 22.352 GiB. Using in-core AOs.


         ------------------------------------------------------------
                                     CPHF                           
                                  Rob Parrish                       
         ------------------------------------------------------------

  ==> Geometry <==

    Molecular point group: c1
    Full point group: C1

    Geometry (in Angstrom), charge = 1, multiplicity = 1:

       Center              X                  Y                   Z               Mass       
    ------------   -----------------  -----------------  -----------------  -----------------
         C           -0.944276548542     0.757911048202    -0.865787109349    12.000000000000
         C            0.201983451458     0.227298048202    -0.243332109349    12.000000000000
         C            0.032767451458    -0.681047951798     0.822764890651    12.000000000000
         C           -1.249499548542    -1.051814951798     1.254089890651    12.000000000000
         C           -2.386113548542    -0.518779951798     0.622132890651    12.000000000000
         C           -2.230093548542     0.386583048202    -0.439561109349    12.000000000000
         C            1.575559451458     0.640519048202    -0.657780109349    12.000000000000
         C            2.403659451458     1.522424048202     0.295754890651    12.000000000000
         C            3.667114451458     0.692329048202     0.597143890651    12.000000000000
         C            3.946512451458    -0.082473951798    -0.707143109349    12.000000000000
         C            2.559115451458    -0.347826951798    -1.291290109349    12.000000000000
         C            1.930689451458     0.751740048202    -2.125192109349    12.000000000000
         H            2.234996451458    -1.374541951798    -1.485776109349     1.007825032230
         H            4.497348451458    -1.018664951798    -0.523681109349     1.007825032230
         H            4.555242451458     0.525183048202    -1.400560109349     1.007825032230
         H            3.432047451458    -0.032431951798     1.396845890651     1.007825032230
         H            4.521103451458     1.301751048202     0.938332890651     1.007825032230
         H            1.832190451458     1.763052048202     1.206087890651     1.007825032230
         H            2.667906451458     2.478290048202    -0.191721109349     1.007825032230
         H           -0.822872548542     1.469817048202    -1.688591109349     1.007825032230
         H           -3.110859548542     0.806242048202    -0.935441109349     1.007825032230
         CL          -3.977994548542    -0.982177951798     1.150125890651    34.968852682000
         H           -1.363621548542    -1.761975951798     2.078949890651     1.007825032230
         H            0.918859451458    -1.106458951798     1.306689890651     1.007825032230
         H            1.169819451458     0.452351048202    -2.851545109349     1.007825032230
         H            2.572005451458     1.583795048202    -2.435002109349     1.007825032230
         H            1.718480451458     1.644234048202    -2.717633109349     1.007825032230

  Nuclear repulsion =  844.849377627947661
  Reference energy  = -921.695558792597353

  ==> Basis Set <==

  Basis Set: CC-PVDZ
    Blend: CC-PVDZ
    Number of shells: 122
    Number of basis functions: 256
    Number of Cartesian functions: 269
    Spherical Harmonics?: true
    Max angular momentum: 2

  ==> CGRSolver (by Rob Parrish) <==

   Number of roots    =         1
   Preconditioning    =    JACOBI
   Convergence cutoff =     1E-06
   Maximum iterations =       100

  ==> CPHFRHamiltonian (by Rob Parrish) <== 

  ==> MemDFJK: Density-Fitted J/K Matrices <==

    J tasked:                   Yes
    K tasked:                   Yes
    wK tasked:                   No
    OpenMP threads:               1
    Memory [MiB]:             22888
    Algorithm:                 Core
    Schwarz Cutoff:           1E-12
    Mask sparsity (%):      10.8765
    Fitting Condition:        1E-10

   => Auxiliary Basis Set <=

  Basis Set: (CC-PVDZ AUX)
    Blend: CC-PVDZ-JKFIT
    Number of shells: 450
    Number of basis functions: 1274
    Number of Cartesian functions: 1452
    Spherical Harmonics?: true
    Max angular momentum: 3

  ==> CPHF Iterations <==

  => Iterations <=

             Iter  Converged  Remaining    Residual
  CGR           1          0          1   8.822E-02
  CGR           2          0          1   1.580E-02
  CGR           3          0          1   7.276E-03
  CGR           4          0          1   2.624E-03
  CGR           5          0          1   1.362E-03
  CGR           6          0          1   6.587E-04
  CGR           7          0          1   2.634E-04
  CGR           8          0          1   8.384E-05
  CGR           9          0          1   3.162E-05
  CGR          10          0          1   1.005E-05
  CGR          11          0          1   3.270E-06
  CGR          12          0          1   1.210E-06
  CGR          13          1          0   4.697E-07

    CGRSolver converged.

  ==> DFCorrGrad: Density-Fitted Correlated Gradients <==

    OpenMP threads:              1
    Integrals threads:           1
    Memory [GiB]:           22.352
    Schwarz Cutoff:          0E+00
    Fitting Condition:       1E-10

   => Auxiliary Basis Set <=

  Basis Set: (CC-PVDZ AUX)
    Blend: CC-PVDZ-JKFIT
    Number of shells: 450
    Number of basis functions: 1274
    Number of Cartesian functions: 1452
    Spherical Harmonics?: true
    Max angular momentum: 3

	-----------------------------------------------------------
	 ==================> DF-MP2 Energies <==================== 
	-----------------------------------------------------------
	 Reference Energy          =    -921.6955587925973532 [Eh]
	 Singles Energy            =      -0.0000000000000000 [Eh]
	 Same-Spin Energy          =      -0.4743058227751039 [Eh]
	 Opposite-Spin Energy      =      -1.3220497119433356 [Eh]
	 Correlation Energy        =      -1.7963555347184395 [Eh]
	 Total Energy              =    -923.4919143273158397 [Eh]
	-----------------------------------------------------------
	 ================> DF-SCS-MP2 Energies <================== 
	-----------------------------------------------------------
	 SCS Same-Spin Scale       =       0.3333333333333333 [-]
	 SCS Opposite-Spin Scale   =       1.2000000000000000 [-]
	 SCS Same-Spin Energy      =      -0.1581019409250346 [Eh]
	 SCS Opposite-Spin Energy  =      -1.5864596543320026 [Eh]
	 SCS Correlation Energy    =      -1.7445615952570372 [Eh]
	 SCS Total Energy          =    -923.4401203878543356 [Eh]
	-----------------------------------------------------------


  -Total Gradient:
     Atom            X                  Y                   Z
    ------   -----------------  -----------------  -----------------
       1       -0.002053548417     0.002601032657    -0.002304307232
       2        0.006825397764     0.000657858630     0.006513903497
       3       -0.002156346331    -0.000701176271     0.001716160416
       4       -0.003060157341     0.002383423606    -0.002868700225
       5        0.000352716055    -0.000315761196     0.000178329790
       6        0.002373260428    -0.003882979895     0.004498921974
       7       -0.002770912623     0.008021620594    -0.009746059496
       8       -0.005679785800    -0.002885254264     0.001466509982
       9        0.001754960218     0.001233875703    -0.001066760318
      10       -0.007746821574    -0.004021466065     0.000339639432
      11       -0.011589008492     0.001541041071    -0.025683869818
      12        0.047663182299     0.042807794890    -0.022865429392
      13        0.001702684921    -0.002604138013     0.011006381249
      14        0.002127761612    -0.000309882749     0.002443133933
      15       -0.000663180436     0.002434497528    -0.000328177712
      16       -0.000374431924    -0.000844590426     0.000236315019
      17        0.001256101278     0.001299663621     0.001302531667
      18        0.001160063601     0.000087797376     0.003264350513
      19       -0.000131921961    -0.001929104941    -0.001087998194
      20        0.003480680753    -0.001399757034     0.000484572095
      21       -0.000339865100     0.000801616755    -0.000954178065
      22       -0.005628561765    -0.001689734592     0.001894838211
      23        0.000409303174    -0.000752367067     0.000842595275
      24        0.001317077391     0.000977222642    -0.001619104862
      25        0.005259285490     0.019589628192     0.009267392476
      26       -0.070597205738    -0.016042621577     0.000978791863
      27        0.037109272446    -0.047058239154     0.022090217885


*** tstop() called on skystd06.palmetto.clemson.edu at Thu Oct 14 20:40:53 2021
Module time:
	user time   =      85.49 seconds =       1.42 minutes
	system time =       4.03 seconds =       0.07 minutes
	total time  =         90 seconds =       1.50 minutes
Total time:
	user time   =     104.75 seconds =       1.75 minutes
	system time =       4.85 seconds =       0.08 minutes
	total time  =        110 seconds =       1.83 minutes

			-----------------------------------------
			 OPTKING 2.0: for geometry optimizations 
			  - R.A. King,  Bethel University        
			-----------------------------------------

	Internal coordinates to be generated automatically.
	Detected frag 1 with atoms:  1 2 3 4 5 6 7 8 9 10 11 12 13 14 15 16 17 18 19 20
	 21 22 23 24 25 26 27
	---Fragment 1 Bond Connectivity---
	 1 : 2 6 20
	 2 : 1 3 7
	 3 : 2 4 24
	 4 : 3 5 23
	 5 : 4 6 22
	 6 : 1 5 21
	 7 : 2 8 11 12
	 8 : 7 9 18 19
	 9 : 8 10 16 17
	 10 : 9 11 14 15
	 11 : 7 10 12 13
	 12 : 7 11 25 26 27
	 13 : 11
	 14 : 10
	 15 : 10
	 16 : 9
	 17 : 9
	 18 : 8
	 19 : 8
	 20 : 1
	 21 : 6
	 22 : 5
	 23 : 4
	 24 : 3
	 25 : 12
	 26 : 12
	 27 : 12

	---Fragment 1 Geometry and Gradient---
	 C          -1.7844240634        1.4322443086       -1.6361005196
	 C           0.3816934051        0.4295310600       -0.4598310442
	 C           0.0619215091       -1.2869941072        1.5548003090
	 C          -2.3612119406       -1.9876421936        2.3698864300
	 C          -4.5091011110       -0.9803520283        1.1756607770
	 C          -4.2142660409        0.7305360858       -0.8306501121
	 C           2.9773758576        1.2104055792       -1.2430242574
	 C           4.5422580621        2.8769644979        0.5588957436
	 C           6.9298419840        1.3083122898        1.1284384108
	 C           7.4578276840       -0.1558531814       -1.3363068082
	 C           4.8360273267       -0.6572976780       -2.4401846552
	 C           3.6484742966        1.4205828086       -4.0160310507
	 H           4.2235311846       -2.5975078369       -2.8077099304
	 H           8.4987568640       -1.9249977725       -0.9896138737
	 H           8.6081606683        0.9924521268       -2.6466750289
	 H           6.4856297328       -0.0612875066        2.6396561728
	 H           8.5436473081        2.4599529646        1.7731921778
	 H           3.4623381629        3.3316855160        2.2791757966
	 H           5.0416125216        4.6832894505       -0.3623003891
	 H          -1.5550037529        2.7775516756       -3.1909747346
	 H          -5.8786725615        1.5235766619       -1.7677275032
	 CL         -7.5173202253       -1.8560473354        2.1734229431
	 H          -2.5768712655       -3.3296519885        3.9286459219
	 H           1.7363927110       -2.0909043880        2.4692860242
	 H           2.2106383795        0.8548195937       -5.3886392911
	 H           4.8603858964        2.9929388800       -4.6014871016
	 H           3.2474574052        3.1071520373       -5.1355822861
	            -0.0020535484        0.0026010327       -0.0023043072
	             0.0068253978        0.0006578586        0.0065139035
	            -0.0021563463       -0.0007011763        0.0017161604
	            -0.0030601573        0.0023834236       -0.0028687002
	             0.0003527161       -0.0003157612        0.0001783298
	             0.0023732604       -0.0038829799        0.0044989220
	            -0.0027709126        0.0080216206       -0.0097460595
	            -0.0056797858       -0.0028852543        0.0014665100
	             0.0017549602        0.0012338757       -0.0010667603
	            -0.0077468216       -0.0040214661        0.0003396394
	            -0.0115890085        0.0015410411       -0.0256838698
	             0.0476631823        0.0428077949       -0.0228654294
	             0.0017026849       -0.0026041380        0.0110063812
	             0.0021277616       -0.0003098827        0.0024431339
	            -0.0006631804        0.0024344975       -0.0003281777
	            -0.0003744319       -0.0008445904        0.0002363150
	             0.0012561013        0.0012996636        0.0013025317
	             0.0011600636        0.0000877974        0.0032643505
	            -0.0001319220       -0.0019291049       -0.0010879982
	             0.0034806808       -0.0013997570        0.0004845721
	            -0.0003398651        0.0008016168       -0.0009541781
	            -0.0056285618       -0.0016897346        0.0018948382
	             0.0004093032       -0.0007523671        0.0008425953
	             0.0013170774        0.0009772226       -0.0016191049
	             0.0052592855        0.0195896282        0.0092673925
	            -0.0705972057       -0.0160426216        0.0009787919
	             0.0371092724       -0.0470582392        0.0220902179

	Previous optimization step data not found.  Starting new optimization.

	---Fragment 1 Intrafragment Coordinates---
	 - Coordinate -           - BOHR/RAD -       - ANG/DEG -
	 R(1,2)           =         2.661035	       1.408159
	 R(1,6)           =         2.654294	       1.404592
	 R(1,20)          =         2.068845	       1.094786
	 R(2,3)           =         2.665981	       1.410776
	 R(2,7)           =         2.821476	       1.493061
	 R(3,4)           =         2.650820	       1.402754
	 R(3,24)          =         2.070365	       1.095590
	 R(4,5)           =         2.655981	       1.405485
	 R(4,23)          =         2.068147	       1.094416
	 R(5,6)           =         2.653177	       1.404001
	 R(5,22)          =         3.288123	       1.740000
	 R(6,21)          =         2.068158	       1.094422
	 R(7,8)           =         2.910875	       1.540368
	 R(7,11)          =         2.894148	       1.531517
	 R(7,12)          =         2.860789	       1.513864
	 R(8,9)           =         2.913006	       1.541497
	 R(8,18)          =         2.081433	       1.101447
	 R(8,19)          =         2.088245	       1.105052
	 R(9,10)          =         2.915050	       1.542578
	 R(9,16)          =         2.087321	       1.104562
	 R(9,17)          =         2.084790	       1.103224
	 R(10,11)         =         2.888569	       1.528565
	 R(10,14)         =         2.081731	       1.101604
	 R(10,15)         =         2.087806	       1.104820
	 R(11,12)         =         2.865512	       1.516364
	 R(11,13)         =         2.067521	       1.094085
	 R(12,25)         =         2.066764	       1.093684
	 R(12,26)         =         2.069732	       1.095255
	 R(12,27)         =         2.063668	       1.092046
	 B(1,2,3)         =         2.070330	     118.621159
	 B(1,2,7)         =         2.119852	     121.458574
	 B(1,6,5)         =         2.096327	     120.110679
	 B(1,6,21)        =         2.091924	     119.858405
	 B(2,1,6)         =         2.107639	     120.758819
	 B(2,1,20)        =         2.079425	     119.142292
	 B(2,3,4)         =         2.108523	     120.809467
	 B(2,3,24)        =         2.079202	     119.129487
	 B(2,7,8)         =         2.072817	     118.763664
	 B(2,7,11)        =         2.125903	     121.805252
	 B(2,7,12)        =         2.100422	     120.345328
	 B(3,2,7)         =         2.092441	     119.888038
	 B(3,4,5)         =         2.095249	     120.048921
	 B(3,4,23)        =         2.092759	     119.906259
	 B(4,3,24)        =         2.095393	     120.057181
	 B(4,5,6)         =         2.088291	     119.650243
	 B(4,5,22)        =         2.097186	     120.159915
	 B(5,4,23)        =         2.095155	     120.043517
	 B(5,6,21)        =         2.094932	     120.030779
	 B(6,1,20)        =         2.096116	     120.098614
	 B(6,5,22)        =         2.097705	     120.189618
	 B(7,8,9)         =         1.826944	     104.676198
	 B(7,8,18)        =         1.936680	     110.963570
	 B(7,8,19)        =         1.929130	     110.530986
	 B(7,11,10)       =         1.888930	     108.227717
	 B(7,11,12)       =         1.039528	      59.560564
	 B(7,11,13)       =         2.081600	     119.266883
	 B(7,12,11)       =         1.059720	      60.717500
	 B(7,12,25)       =         2.049292	     117.415782
	 B(7,12,26)       =         2.057096	     117.862942
	 B(7,12,27)       =         2.141610	     122.705224
	 B(8,7,11)        =         1.854886	     106.277162
	 B(8,7,12)        =         2.017351	     115.585685
	 B(8,9,10)        =         1.827213	     104.691617
	 B(8,9,16)        =         1.897014	     108.690913
	 B(8,9,17)        =         1.979545	     113.419580
	 B(9,8,18)        =         1.962002	     112.414409
	 B(9,8,19)        =         1.934839	     110.858094
	 B(9,10,11)       =         1.819262	     104.236043
	 B(9,10,14)       =         1.956931	     112.123910
	 B(9,10,15)       =         1.932871	     110.745342
	 B(10,9,16)       =         1.897723	     108.731493
	 B(10,9,17)       =         1.980944	     113.499740
	 B(10,11,12)      =         2.049282	     117.415187
	 B(10,11,13)      =         2.094079	     119.981893
	 B(11,7,12)       =         1.042344	      59.721936
	 B(11,10,14)      =         1.949769	     111.713517
	 B(11,10,15)      =         1.934481	     110.837597
	 B(11,12,25)      =         2.043221	     117.067911
	 B(11,12,26)      =         2.053042	     117.630648
	 B(11,12,27)      =         2.902294	     166.289211
	 B(12,11,13)      =         2.048738	     117.384025
	 B(14,10,15)      =         1.871758	     107.243849
	 B(16,9,17)       =         1.878938	     107.655190
	 B(18,8,19)       =         1.875161	     107.438837
	 B(25,12,26)      =         2.012474	     115.306264
	 B(25,12,27)      =         1.295571	      74.230762
	 B(26,12,27)      =         0.849254	      48.658693
	 D(1,2,3,4)       =         0.002225	       0.127485
	 D(1,2,3,24)      =         3.131341	     179.412627
	 D(1,2,7,8)       =         1.903727	     109.075519
	 D(1,2,7,11)      =        -2.009677	    -115.146011
	 D(1,2,7,12)      =        -0.769280	     -44.076485
	 D(1,6,5,4)       =        -0.001268	      -0.072650
	 D(1,6,5,22)      =        -3.139863	    -179.900916
	 D(2,1,6,5)       =         0.004887	       0.280010
	 D(2,1,6,21)      =        -3.139052	    -179.854428
	 D(2,3,4,5)       =         0.001304	       0.074700
	 D(2,3,4,23)      =         3.135653	     179.659684
	 D(2,7,8,9)       =         2.100956	     120.375901
	 D(2,7,8,18)      =        -0.019558	      -1.120595
	 D(2,7,8,19)      =        -2.098070	    -120.210552
	 D(2,7,11,10)     =        -2.431542	    -139.317099
	 D(2,7,11,12)     =         1.903190	     109.044759
	 D(2,7,11,13)     =         0.046269	       2.651043
	 D(2,7,12,11)     =        -1.944837	    -111.430967
	 D(2,7,12,25)     =        -0.072653	      -4.162703
	 D(2,7,12,26)     =         2.457624	     140.811498
	 D(2,7,12,27)     =         1.467377	      84.074498
	 D(3,2,1,6)       =        -0.005315	      -0.304531
	 D(3,2,1,20)      =         3.132955	     179.505096
	 D(3,2,7,8)       =        -1.201325	     -68.830845
	 D(3,2,7,11)      =         1.168456	      66.947624
	 D(3,2,7,12)      =         2.408854	     138.017151
	 D(3,4,5,6)       =        -0.001796	      -0.102888
	 D(3,4,5,22)      =         3.136800	     179.725430
	 D(4,3,2,7)       =         3.108309	     178.092997
	 D(4,5,6,21)      =        -3.140510	    -179.937978
	 D(5,4,3,24)      =        -3.127697	    -179.203838
	 D(5,6,1,20)      =        -3.133351	    -179.527802
	 D(6,1,2,7)       =        -3.110817	    -178.236678
	 D(6,5,4,23)      =        -3.136135	    -179.687298
	 D(7,2,1,20)      =         0.027453	       1.572949
	 D(7,2,3,24)      =        -0.045760	      -2.621861
	 D(7,8,9,10)      =         0.589407	      33.770540
	 D(7,8,9,16)      =        -1.436065	     -82.280465
	 D(7,8,9,17)      =         2.757968	     158.019943
	 D(7,11,10,9)     =         0.342659	      19.632931
	 D(7,11,10,14)    =         2.459428	     140.914841
	 D(7,11,10,15)    =        -1.737450	     -99.548568
	 D(7,11,12,25)    =        -1.882068	    -107.834530
	 D(7,11,12,26)    =         1.887309	     108.134828
	 D(7,11,12,27)    =         1.891341	     108.365864
	 D(7,12,11,10)    =        -1.674893	     -95.964306
	 D(7,12,11,13)    =         1.911561	     109.524357
	 D(8,7,11,10)     =         0.019569	       1.121217
	 D(8,7,11,12)     =        -1.928884	    -110.516925
	 D(8,7,11,13)     =         2.497380	     143.089359
	 D(8,7,12,11)     =         1.651177	      94.605460
	 D(8,7,12,25)     =        -2.759824	    -158.126276
	 D(8,7,12,26)     =        -0.229547	     -13.152074
	 D(8,7,12,27)     =        -1.219794	     -69.889074
	 D(8,9,10,11)     =        -0.573602	     -32.864999
	 D(8,9,10,14)     =        -2.685602	    -153.873654
	 D(8,9,10,15)     =         1.507600	      86.379143
	 D(9,8,7,11)      =        -0.375127	     -21.493186
	 D(9,8,7,12)      =        -1.487484	     -85.226572
	 D(9,10,11,12)    =         1.468895	      84.161501
	 D(9,10,11,13)    =        -2.129570	    -122.015351
	 D(10,9,8,18)     =         2.693170	     154.307289
	 D(10,9,8,19)     =        -1.490910	     -85.422842
	 D(10,11,7,12)    =         1.948453	     111.638142
	 D(10,11,12,25)   =         2.726225	     156.201164
	 D(10,11,12,26)   =         0.212416	      12.170522
	 D(10,11,12,27)   =         0.216448	      12.401558
	 D(11,7,8,18)     =        -2.495641	    -142.989682
	 D(11,7,8,19)     =         1.709033	      97.920361
	 D(11,7,12,25)    =         1.872184	     107.268264
	 D(11,7,12,26)    =        -1.880724	    -107.757534
	 D(11,7,12,27)    =        -2.870971	    -164.494534
	 D(11,10,9,16)    =         1.451379	      83.157872
	 D(11,10,9,17)    =        -2.741271	    -157.063259
	 D(12,7,8,18)     =         2.675187	     153.276932
	 D(12,7,8,19)     =         0.596675	      34.186976
	 D(12,7,11,13)    =        -1.856921	    -106.393716
	 D(12,11,10,14)   =        -2.697521	    -154.556588
	 D(12,11,10,15)   =        -0.611214	     -35.019998
	 D(13,11,10,14)   =        -0.012801	      -0.733441
	 D(13,11,10,15)   =         2.073506	     118.803150
	 D(13,11,12,25)   =         0.029493	       1.689827
	 D(13,11,12,26)   =        -2.484316	    -142.340815
	 D(13,11,12,27)   =        -2.480284	    -142.109779
	 D(14,10,9,16)    =        -0.660621	     -37.850783
	 D(14,10,9,17)    =         1.429915	      81.928087
	 D(15,10,9,16)    =        -2.750604	    -157.597986
	 D(15,10,9,17)    =        -0.660068	     -37.819116
	 D(16,9,8,18)     =         0.667698	      38.256283
	 D(16,9,8,19)     =         2.766803	     158.526152
	 D(17,9,8,18)     =        -1.421454	     -81.443309
	 D(17,9,8,19)     =         0.677651	      38.826560
	 D(20,1,6,21)     =         0.005895	       0.337760
	 D(21,6,5,22)     =         0.004080	       0.233756
	 D(22,5,4,23)     =         0.002461	       0.141019
	 D(23,4,3,24)     =         0.006652	       0.381147

	Current energy   :      -923.4919143273

	Generating empirical Hessian (Schlegel '84) for each fragment.
	Taking PRFO optimization step.
	Maximizing along 1 lowest eigenvalue of Hessian.

 RFO min eigenvalues
 -0.039981 -0.000000 -0.000000 -0.000000 -0.000000 -0.000000 -0.000000 -0.000000
 -0.000000 -0.000000 -0.000000 -0.000000 -0.000000 -0.000000 -0.000000 -0.000000
 -0.000000 -0.000000 -0.000000 -0.000000 -0.000000 -0.000000 -0.000000 -0.000000
 -0.000000 -0.000000 -0.000000 -0.000000 -0.000000 -0.000000 -0.000000 -0.000000
 -0.000000 -0.000000 -0.000000 -0.000000 -0.000000 -0.000000 -0.000000 -0.000000
 -0.000000 -0.000000 -0.000000 -0.000000 -0.000000 -0.000000 -0.000000 -0.000000
 -0.000000 -0.000000 -0.000000 -0.000000 -0.000000  0.000000  0.000000  0.000000
  0.000000  0.000000  0.000000  0.000000  0.000000  0.000000  0.000000  0.000000
  0.000000  0.000000  0.000000  0.000000  0.000000  0.000000  0.000000  0.000000
  0.000000  0.000000  0.000000  0.000000  0.000000  0.000000  0.000000  0.000000
  0.000000  0.000000  0.000000  0.000000  0.000000  0.000000  0.000000  0.000000
  0.000000  0.000000  0.000000  0.000000  0.000000  0.000000  0.000000  0.000000
  0.000000  0.000000  0.000000  0.000000  0.000000  0.000000  0.000000  0.000000
  0.000000  0.000000  0.000000  0.000000  0.003408  0.005773  0.005877  0.007508
  0.012046  0.012468  0.015112  0.016990  0.017273  0.017343  0.017495  0.017535
  0.017591  0.017607  0.017664  0.020545  0.027629  0.028916  0.033439  0.038511
  0.043324  0.050841  0.053982  0.058639  0.061213  0.068934  0.069853  0.070210
  0.073183  0.079817  0.084024  0.093113  0.099092  0.103608  0.107791  0.110787
  0.159991  0.159996  0.160000  0.160222  0.168471  0.201685  0.205124  0.220011
  0.229702  0.240169  0.249883  0.249999  0.263981  0.266946  0.276422  0.290677
  0.301714  0.314837  0.331166  0.331298  0.331549  0.331826  0.333286  0.335056
  0.335231  0.341746  0.342654  0.343065  0.343072  0.343426  0.343448  0.344147
  0.362562  0.407315  0.409174  0.442344  0.445146  0.448691  0.450639

 RFO max eigenvalues
 -0.000000  0.000000
	Change in coordinate exceeds step limit of    0.50000.
	Scaling displacements by    0.90414
	|RFO target step|  :        0.5000000000
	RFO gradient       :       -0.0722957661
	RFO hessian        :        0.0907773677
	Projected Delta(E) :       -0.0198405697

	Back-transformation to cartesian coordinates...
	Could not converge backtransformation.
	Using first guess instead.

	--- Internal Coordinate Step in ANG or DEG, aJ/ANG or AJ/DEG ---
	 ---------------------------------------------------------------------------
	   Coordinate                Previous        Force       Change         New 
	   ----------                --------       ------       ------       ------
	    1 R(1,2)          =      1.408159     0.007405     0.000902     1.409061
	    2 R(1,6)          =      1.404592    -0.029952    -0.003518     1.401073
	    3 R(1,20)         =      1.094786     0.007319     0.001289     1.096074
	    4 R(2,3)          =      1.410776    -0.007695    -0.000920     1.409856
	    5 R(2,7)          =      1.493061    -0.010662    -0.001561     1.491499
	    6 R(3,4)          =      1.402754    -0.030969    -0.003661     1.399092
	    7 R(3,24)         =      1.095590     0.000242     0.000089     1.095679
	    8 R(4,5)          =      1.405485     0.006556     0.000860     1.406345
	    9 R(4,23)         =      1.094416    -0.008903    -0.001294     1.093122
	   10 R(5,6)          =      1.404001    -0.002093    -0.000133     1.403868
	   11 R(5,22)         =      1.740000    -0.050869    -0.008319     1.731681
	   12 R(6,21)         =      1.094422    -0.008348    -0.001235     1.093187
	   13 R(7,8)          =      1.540368     0.018854     0.003748     1.544116
	   14 R(7,11)         =      1.531517     0.027466     0.001738     1.533255
	   15 R(7,12)         =      1.513864    -0.014128    -0.001737     1.512127
	   16 R(8,9)          =      1.541497     0.009879     0.001325     1.542822
	   17 R(8,18)         =      1.101447    -0.017427    -0.002669     1.098778
	   18 R(8,19)         =      1.105052     0.010053     0.001576     1.106628
	   19 R(9,10)         =      1.542578    -0.002229    -0.000231     1.542347
	   20 R(9,16)         =      1.104562    -0.006632    -0.001016     1.103546
	   21 R(9,17)         =      1.103224    -0.017244    -0.002657     1.100566
	   22 R(10,11)        =      1.528565     0.018405     0.003303     1.531868
	   23 R(10,14)        =      1.101604    -0.014287    -0.002034     1.099571
	   24 R(10,15)        =      1.104820    -0.009718    -0.001491     1.103329
	   25 R(11,12)        =      1.516364     0.041104     0.009938     1.526302
	   26 R(11,13)        =      1.094085     0.000141     0.000627     1.094712
	   27 R(12,25)        =      1.093684     0.125032     0.021519     1.115204
	   28 R(12,26)        =      1.095255     0.443258     0.076714     1.171969
	   29 R(12,27)        =      1.092046     0.474999     0.073034     1.165080
	   30 B(1,2,3)        =    118.621159     0.000229     0.547429   119.168588
	   31 B(1,2,7)        =    121.458574     0.000110     0.248813   121.707387
	   32 B(1,6,5)        =    120.110679    -0.000252    -0.620944   119.489736
	   33 B(1,6,21)       =    119.858405     0.000189     0.523656   120.382062
	   34 B(2,1,6)        =    120.758819    -0.000035    -0.068980   120.689839
	   35 B(2,1,20)       =    119.142292     0.000301     0.997413   120.139706
	   36 B(2,3,4)        =    120.809467    -0.000131    -0.328144   120.481323
	   37 B(2,3,24)       =    119.129487     0.000245     0.777259   119.906745
	   38 B(2,7,8)        =    118.763664     0.000345     1.324744   120.088408
	   39 B(2,7,11)       =    121.805252    -0.000063     0.167026   121.972278
	   40 B(2,7,12)       =    120.345328    -0.000362    -1.661082   118.684245
	   41 B(3,2,7)        =    119.888038    -0.000339    -0.801262   119.086775
	   42 B(3,4,5)        =    120.048921    -0.000138    -0.334741   119.714181
	   43 B(3,4,23)       =    119.906259     0.000110     0.308502   120.214762
	   44 B(4,3,24)       =    120.057181    -0.000114    -0.447479   119.609702
	   45 B(4,5,6)        =    119.650243     0.000328     0.805350   120.455593
	   46 B(4,5,22)       =    120.159915    -0.000158    -0.388306   119.771609
	   47 B(5,4,23)       =    120.043517     0.000028     0.026584   120.070101
	   48 B(5,6,21)       =    120.030779     0.000063     0.096976   120.127754
	   49 B(6,1,20)       =    120.098614    -0.000266    -0.930544   119.168070
	   50 B(6,5,22)       =    120.189618    -0.000170    -0.416890   119.772727
	   51 B(7,8,9)        =    104.676198     0.000022     0.008768   104.684966
	   52 B(7,8,18)       =    110.963570    -0.000184    -0.945475   110.018095
	   53 B(7,8,19)       =    110.530986     0.000117     0.626854   111.157840
	   54 B(7,11,10)      =    108.227717     0.000135     0.521255   108.748972
	   55 B(7,11,12)      =     59.560564    -0.000178    -0.323011    59.237553
	   56 B(7,11,13)      =    119.266883    -0.000006     0.464532   119.731415
	   57 B(7,12,11)      =     60.717500     0.000051    -0.107259    60.610241
	   58 B(7,12,25)      =    117.415782     0.000080     1.842397   119.258179
	   59 B(7,12,26)      =    117.862942    -0.000229     0.998574   118.861515
	   60 B(7,12,27)      =    122.705224    -0.000161    -0.825512   121.879712
	   61 B(8,7,11)       =    106.277162    -0.000185    -0.611108   105.666054
	   62 B(8,7,12)       =    115.585685     0.000001    -0.044963   115.540722
	   63 B(8,9,10)       =    104.691617     0.000088     0.027930   104.719547
	   64 B(8,9,16)       =    108.690913    -0.000010     0.154281   108.845194
	   65 B(8,9,17)       =    113.419580    -0.000022    -0.060094   113.359486
	   66 B(9,8,18)       =    112.414409     0.000098     0.542330   112.956739
	   67 B(9,8,19)       =    110.858094    -0.000005     0.115866   110.973959
	   68 B(9,10,11)      =    104.236043    -0.000143    -0.592687   103.643356
	   69 B(9,10,14)      =    112.123910     0.000215     0.865917   112.989827
	   70 B(9,10,15)      =    110.745342     0.000025     0.402626   111.147968
	   71 B(10,9,16)      =    108.731493     0.000031     0.312655   109.044148
	   72 B(10,9,17)      =    113.499740    -0.000096    -0.403043   113.096697
	   73 B(10,11,12)     =    117.415187     0.000156     0.509769   117.924956
	   74 B(10,11,13)     =    119.981893     0.000095     0.869298   120.851191
	   75 B(11,7,12)      =     59.721936     0.000126     0.430270    60.152206
	   76 B(11,10,14)     =    111.713517    -0.000137    -0.817739   110.895777
	   77 B(11,10,15)     =    110.837597     0.000119     0.490832   111.328429
	   78 B(11,12,25)     =    117.067911    -0.000282    -2.355477   114.712434
	   79 B(11,12,26)     =    117.630648    -0.001188    -7.063584   110.567065
	   80 B(11,12,27)     =    166.289211     0.000355     1.701182   167.990393
	   81 B(12,11,13)     =    117.384025    -0.000289    -2.266756   115.117269
	   82 B(14,10,15)     =    107.243849    -0.000072    -0.322509   106.921340
	   83 B(16,9,17)      =    107.655190     0.000013     0.004782   107.659972
	   84 B(18,8,19)      =    107.438837    -0.000043    -0.326855   107.111982
	   85 B(25,12,26)     =    115.306264     0.000956     2.831496   118.137759
	   86 B(25,12,27)     =     74.230762    -0.000022     0.891692    75.122453
	   87 B(26,12,27)     =     48.658693     0.001542     8.862221    57.520914
	   88 D(1,2,3,4)      =      0.127485     0.000000     0.009809     0.137294
	   89 D(1,2,3,24)     =    179.412627     0.000003     0.179364   179.591990
	   90 D(1,2,7,8)      =    109.075519    -0.000015    -1.133794   107.941725
	   91 D(1,2,7,11)     =   -115.146011     0.000001    -0.063167  -115.209179
	   92 D(1,2,7,12)     =    -44.076485    -0.000007    -0.234939   -44.311424
	   93 D(1,6,5,4)      =     -0.072650     0.000000     0.019150    -0.053500
	   94 D(1,6,5,22)     =   -179.900916    -0.000001    -0.055697  -179.956612
	   95 D(2,1,6,5)      =      0.280010    -0.000000    -0.007647     0.272363
	   96 D(2,1,6,21)     =   -179.854428    -0.000002    -0.116451  -179.970880
	   97 D(2,3,4,5)      =      0.074700     0.000000     0.002456     0.077156
	   98 D(2,3,4,23)     =    179.659684     0.000001     0.061825   179.721509
	   99 D(2,7,8,9)      =    120.375901     0.000007     0.572734   120.948635
	  100 D(2,7,8,18)     =     -1.120595    -0.000000     0.427185    -0.693411
	  101 D(2,7,8,19)     =   -120.210552     0.000022     1.040451  -119.170100
	  102 D(2,7,11,10)    =   -139.317099    -0.000063    -1.643405  -140.960504
	  103 D(2,7,11,12)    =    109.044759    -0.000084    -1.936713   107.108046
	  104 D(2,7,11,13)    =      2.651043     0.000013     1.223764     3.874807
	  105 D(2,7,12,11)    =   -111.430967    -0.000027    -1.023075  -112.454042
	  106 D(2,7,12,25)    =     -4.162703    -0.000108    -4.732376    -8.895079
	  107 D(2,7,12,26)    =    140.811498     0.000275     8.110507   148.922005
	  108 D(2,7,12,27)    =     84.074498    -0.000122    -2.863543    81.210955
	  109 D(3,2,1,6)      =     -0.304531    -0.000000    -0.009213    -0.313744
	  110 D(3,2,1,20)     =    179.505096    -0.000008    -0.385335   179.119761
	  111 D(3,2,7,8)      =    -68.830845    -0.000013    -0.988431   -69.819276
	  112 D(3,2,7,11)     =     66.947624     0.000003     0.082196    67.029820
	  113 D(3,2,7,12)     =    138.017151    -0.000005    -0.089576   137.927575
	  114 D(3,4,5,6)      =     -0.102888    -0.000000    -0.017317    -0.120205
	  115 D(3,4,5,22)     =    179.725430     0.000001     0.057479   179.782908
	  116 D(4,3,2,7)      =    178.092997    -0.000002    -0.137118   177.955878
	  117 D(4,5,6,21)     =   -179.937978     0.000002     0.127092  -179.810887
	  118 D(5,4,3,24)     =   -179.203838    -0.000003    -0.175316  -179.379154
	  119 D(5,6,1,20)     =   -179.527802     0.000007     0.361216  -179.166586
	  120 D(6,1,2,7)      =   -178.236678     0.000004     0.163717  -178.072962
	  121 D(6,5,4,23)     =   -179.687298    -0.000002    -0.077781  -179.765079
	  122 D(7,2,1,20)     =      1.572949    -0.000003    -0.212405     1.360543
	  123 D(7,2,3,24)     =     -2.621861     0.000001     0.032436    -2.589425
	  124 D(7,8,9,10)     =     33.770540     0.000037     1.015041    34.785581
	  125 D(7,8,9,16)     =    -82.280465     0.000020     0.569572   -81.710893
	  126 D(7,8,9,17)     =    158.019943     0.000021     0.495100   158.515043
	  127 D(7,11,10,9)    =     19.632931     0.000014     0.476388    20.109319
	  128 D(7,11,10,14)   =    140.914841     0.000036     0.719460   141.634301
	  129 D(7,11,10,15)   =    -99.548568     0.000013     0.098611   -99.449957
	  130 D(7,11,12,25)   =   -107.834530    -0.000054    -3.160149  -110.994679
	  131 D(7,11,12,26)   =    108.134828     0.000055     4.221755   112.356583
	  132 D(7,11,12,27)   =    108.365864    -0.000047    -2.970338   105.395526
	  133 D(7,12,11,10)   =    -95.964306    -0.000001    -0.227457   -96.191764
	  134 D(7,12,11,13)   =    109.524357     0.000013     1.475709   111.000066
	  135 D(8,7,11,10)    =      1.121217    -0.000004    -0.004346     1.116870
	  136 D(8,7,11,12)    =   -110.516925    -0.000025    -0.297654  -110.814579
	  137 D(8,7,11,13)    =    143.089359     0.000073     2.862822   145.952181
	  138 D(8,7,12,11)    =     94.605460    -0.000040    -0.542666    94.062794
	  139 D(8,7,12,25)    =   -158.126276    -0.000121    -4.251966  -162.378242
	  140 D(8,7,12,26)    =    -13.152074     0.000262     8.590916    -4.561158
	  141 D(8,7,12,27)    =    -69.889074    -0.000135    -2.383134   -72.272208
	  142 D(8,9,10,11)    =    -32.864999    -0.000024    -0.764736   -33.629735
	  143 D(8,9,10,14)    =   -153.873654     0.000008     0.133206  -153.740447
	  144 D(8,9,10,15)    =     86.379143    -0.000007    -0.326247    86.052896
	  145 D(9,8,7,11)     =    -21.493186    -0.000009    -0.504850   -21.998037
	  146 D(9,8,7,12)     =    -85.226572    -0.000024    -0.739635   -85.966207
	  147 D(9,10,11,12)   =     84.161501    -0.000015     0.390563    84.552064
	  148 D(9,10,11,13)   =   -122.015351    -0.000052    -2.245822  -124.261173
	  149 D(10,9,8,18)    =    154.307289     0.000002     0.169196   154.476485
	  150 D(10,9,8,19)    =    -85.422842     0.000003     0.204197   -85.218645
	  151 D(10,11,7,12)   =    111.638142     0.000021     0.293307   111.931449
	  152 D(10,11,12,25)  =    156.201164    -0.000055    -3.387607   152.813557
	  153 D(10,11,12,26)  =     12.170522     0.000054     3.994298    16.164820
	  154 D(10,11,12,27)  =     12.401558    -0.000048    -3.197795     9.203763
	  155 D(11,7,8,18)    =   -142.989682    -0.000016    -0.650400  -143.640082
	  156 D(11,7,8,19)    =     97.920361     0.000006    -0.037133    97.883229
	  157 D(11,7,12,25)   =    107.268264    -0.000081    -3.709301   103.558963
	  158 D(11,7,12,26)   =   -107.757534     0.000302     9.133582   -98.623952
	  159 D(11,7,12,27)   =   -164.494534    -0.000095    -1.840468  -166.335003
	  160 D(11,10,9,16)   =     83.157872    -0.000013    -0.428536    82.729336
	  161 D(11,10,9,17)   =   -157.063259    -0.000018    -0.464326  -157.527585
	  162 D(12,7,8,18)    =    153.276932    -0.000031    -0.885185   152.391748
	  163 D(12,7,8,19)    =     34.186976    -0.000009    -0.271918    33.915058
	  164 D(12,7,11,13)   =   -106.393716     0.000098     3.160476  -103.233240
	  165 D(12,11,10,14)  =   -154.556588     0.000007     0.633635  -153.922953
	  166 D(12,11,10,15)  =    -35.019998    -0.000016     0.012786   -35.007212
	  167 D(13,11,10,14)  =     -0.733441    -0.000030    -2.002750    -2.736191
	  168 D(13,11,10,15)  =    118.803150    -0.000054    -2.623599   116.179551
	  169 D(13,11,12,25)  =      1.689827    -0.000040    -1.684440     0.005387
	  170 D(13,11,12,26)  =   -142.340815     0.000069     5.697465  -136.643351
	  171 D(13,11,12,27)  =   -142.109779    -0.000033    -1.494629  -143.604407
	  172 D(14,10,9,16)   =    -37.850783     0.000019     0.469406   -37.381377
	  173 D(14,10,9,17)   =     81.928087     0.000014     0.433616    82.361703
	  174 D(15,10,9,16)   =   -157.597986     0.000003     0.009952  -157.588033
	  175 D(15,10,9,17)   =    -37.819116    -0.000002    -0.025837   -37.844954
	  176 D(16,9,8,18)    =     38.256283    -0.000016    -0.276272    37.980011
	  177 D(16,9,8,19)    =    158.526152    -0.000014    -0.241272   158.284881
	  178 D(17,9,8,18)    =    -81.443309    -0.000015    -0.350744   -81.794053
	  179 D(17,9,8,19)    =     38.826560    -0.000013    -0.315744    38.510816
	  180 D(20,1,6,21)    =      0.337760     0.000005     0.252412     0.590172
	  181 D(21,6,5,22)    =      0.233756     0.000001     0.052245     0.286001
	  182 D(22,5,4,23)    =      0.141019    -0.000000    -0.002985     0.138034
	  183 D(23,4,3,24)    =      0.381147    -0.000002    -0.115948     0.265199
	 ---------------------------------------------------------------------------
	Successfully symmetrized geometry.

  ==> Convergence Check <==

  Measures of convergence in internal coordinates in au.
  Criteria marked as inactive (o), active & met (*), and active & unmet ( ).
  --------------------------------------------------------------------------------------------- ~
   Step     Total Energy     Delta E     MAX Force     RMS Force      MAX Disp      RMS Disp    ~
  --------------------------------------------------------------------------------------------- ~
    Convergence Criteria    1.00e-06 *    3.00e-04 *             o    1.20e-03 *             o  ~
  --------------------------------------------------------------------------------------------- ~
      1    -923.49191433   -9.23e+02      5.77e-02      6.99e-03 o    1.59e-01      3.59e-02 o  ~
  ---------------------------------------------------------------------------------------------

	Writing optimization data to binary file.
	Structure for next step:
	Cartesian Geometry (in Angstrom)
	    C    -0.9500212618   0.7675785295  -0.8607066923
	    C     0.1922652096   0.2278890444  -0.2367121772
	    C     0.0285157979  -0.6887681322   0.8218808591
	    C    -1.2514785017  -1.0610704166   1.2466927415
	    C    -2.3823445960  -0.5176246391   0.6113866504
	    C    -2.2351510639   0.3969393477  -0.4434839085
	    C     1.5700983750   0.6381803212  -0.6339617889
	    C     2.4129270979   1.5297108637   0.3036457497
	    C     3.6776822907   0.6979455426   0.6017385066
	    C     3.9569864789  -0.0725295069  -0.7048572108
	    C     2.5592245933  -0.3465893374  -1.2685709121
	    C     1.8993733514   0.7457052841  -2.1058806575
	    H     2.2369717363  -1.3671271636  -1.4988972483
	    H     4.5048104944  -1.0117078309  -0.5408802573
	    H     4.5596128565   0.5330625685  -1.4030216682
	    H     3.4483536998  -0.0245083266   1.4037874779
	    H     4.5318329281   1.3067434078   0.9349625425
	    H     1.8379208047   1.7742231486   1.2074679081
	    H     2.6747859148   2.4875875422  -0.1847468537
	    H    -0.8412568179   1.4924757508  -1.6756134865
	    H    -3.1179150227   0.8184193221  -0.9314809142
	   CL    -3.9672904631  -0.9816990828   1.1322518795
	    H    -1.3733797645  -1.7756278776   2.0649005616
	    H     0.9083927953  -1.1209974125   1.3112753864
	    H     1.1630586875   0.3761900524  -2.8575313418
	    H     2.6932253979   1.5354396706  -2.4517577343
	    H     1.6148690516   1.6854836000  -2.7330053292
			--------------------------
			 OPTKING Finished Execution 
			--------------------------

    Structure for next step:
    Molecular point group: c1
    Full point group: C1

    Geometry (in Angstrom), charge = 1, multiplicity = 1:

    C           -0.950233635762     0.766326854799    -0.861512133394
    C            0.192052840134     0.226637367529    -0.237517615773
    C            0.028303427750    -0.690019812611     0.821075424627
    C           -1.251690876823    -1.062322098471     1.245887308781
    C           -2.382556975628    -0.518876318827     0.610581215121
    C           -2.235363442904     0.395687671560    -0.444289347926
    C            1.569886010979     0.636928645945    -0.634767229028
    C            2.412714737142     1.528459191939     0.302840313208
    C            3.677469934954     0.696693867634     0.600933071300
    C            3.956774124224    -0.073781184902    -0.705662651238
    C            2.559012233123    -0.347841016538    -1.269376354716
    C            1.899160988613     0.744453609341    -2.106686103406
    H            2.236759374836    -1.368378846685    -1.499702691820
    H            4.504598141868    -1.012959512566    -0.541685697084
    H            4.559400504183     0.531810892863    -1.403827111418
    H            3.448141343161    -0.025760004416     1.402982045728
    H            4.531620575706     1.305491735166     0.934157108511
    H            1.837708441711     1.772971477800     1.206662475227
    H            2.674573555109     2.486335874291    -0.185552292141
    H           -0.841469191424     1.491224078906    -1.676418930736
    H           -3.118127405206     0.817167647604    -0.932286355538
    CL          -3.967502848930    -0.982950764428     1.131446446318
    H           -1.373592140080    -1.776879562277     2.064095132082
    H            0.908180428592    -1.122249094675     1.310469953860
    H            1.162846321806     0.374938376104    -2.858336790708
    H            2.693013038304     1.534187998865    -2.452563181574
    H            1.614656687708     1.684231928853    -2.733810777632


Scratch directory: /tmp/
gradient() will perform analytic gradient computation.

*** tstart() called on skystd06.palmetto.clemson.edu
*** at Thu Oct 14 20:40:53 2021

   => Loading Basis Set <=

    Name: CC-PVDZ
    Role: ORBITAL
    Keyword: BASIS
    atoms 1-12         entry C          line   138 file /home/maxbuskirk/.conda/envs/psifour/share/psi4/basis/cc-pvdz.gbs 
    atoms 13-21, 23-27 entry H          line    22 file /home/maxbuskirk/.conda/envs/psifour/share/psi4/basis/cc-pvdz.gbs 
    atoms 22           entry CL         line   658 file /home/maxbuskirk/.conda/envs/psifour/share/psi4/basis/cc-pvdz.gbs 


         ---------------------------------------------------------
                                   SCF
               by Justin Turney, Rob Parrish, Andy Simmonett
                          and Daniel G. A. Smith
                              RHF Reference
                        1 Threads,  30517 MiB Core
         ---------------------------------------------------------

  ==> Geometry <==

    Molecular point group: c1
    Full point group: C1

    Geometry (in Angstrom), charge = 1, multiplicity = 1:

       Center              X                  Y                   Z               Mass       
    ------------   -----------------  -----------------  -----------------  -----------------
         C           -0.950233635762     0.766326854799    -0.861512133394    12.000000000000
         C            0.192052840134     0.226637367529    -0.237517615773    12.000000000000
         C            0.028303427750    -0.690019812611     0.821075424627    12.000000000000
         C           -1.251690876823    -1.062322098471     1.245887308781    12.000000000000
         C           -2.382556975628    -0.518876318827     0.610581215121    12.000000000000
         C           -2.235363442904     0.395687671560    -0.444289347926    12.000000000000
         C            1.569886010979     0.636928645945    -0.634767229028    12.000000000000
         C            2.412714737142     1.528459191939     0.302840313208    12.000000000000
         C            3.677469934954     0.696693867634     0.600933071300    12.000000000000
         C            3.956774124224    -0.073781184902    -0.705662651238    12.000000000000
         C            2.559012233123    -0.347841016538    -1.269376354716    12.000000000000
         C            1.899160988613     0.744453609341    -2.106686103406    12.000000000000
         H            2.236759374836    -1.368378846685    -1.499702691820     1.007825032230
         H            4.504598141868    -1.012959512566    -0.541685697084     1.007825032230
         H            4.559400504183     0.531810892863    -1.403827111418     1.007825032230
         H            3.448141343161    -0.025760004416     1.402982045728     1.007825032230
         H            4.531620575706     1.305491735166     0.934157108511     1.007825032230
         H            1.837708441711     1.772971477800     1.206662475227     1.007825032230
         H            2.674573555109     2.486335874291    -0.185552292141     1.007825032230
         H           -0.841469191424     1.491224078906    -1.676418930736     1.007825032230
         H           -3.118127405206     0.817167647604    -0.932286355538     1.007825032230
         CL          -3.967502848930    -0.982950764428     1.131446446318    34.968852682000
         H           -1.373592140080    -1.776879562277     2.064095132082     1.007825032230
         H            0.908180428592    -1.122249094675     1.310469953860     1.007825032230
         H            1.162846321806     0.374938376104    -2.858336790708     1.007825032230
         H            2.693013038304     1.534187998865    -2.452563181574     1.007825032230
         H            1.614656687708     1.684231928853    -2.733810777632     1.007825032230

  Running in c1 symmetry.

  Rotational constants: A =      0.07015  B =      0.01066  C =      0.01003 [cm^-1]
  Rotational constants: A =   2103.14319  B =    319.55641  C =    300.66273 [MHz]
  Nuclear repulsion =  844.533159514579893

  Charge       = 1
  Multiplicity = 1
  Electrons    = 102
  Nalpha       = 51
  Nbeta        = 51

  ==> Algorithm <==

  SCF Algorithm Type is DF.
  DIIS enabled.
  MOM disabled.
  Fractional occupation disabled.
  Guess Type is READ.
  Energy threshold   = 1.00e-10
  Density threshold  = 1.00e-10
  Integral threshold = 1.00e-12

  ==> Primary Basis <==

  Basis Set: CC-PVDZ
    Blend: CC-PVDZ
    Number of shells: 122
    Number of basis functions: 256
    Number of Cartesian functions: 269
    Spherical Harmonics?: true
    Max angular momentum: 2

   => Loading Basis Set <=

    Name: (CC-PVDZ AUX)
    Role: JKFIT
    Keyword: DF_BASIS_SCF
    atoms 1-12         entry C          line   121 file /home/maxbuskirk/.conda/envs/psifour/share/psi4/basis/cc-pvdz-jkfit.gbs 
    atoms 13-21, 23-27 entry H          line    51 file /home/maxbuskirk/.conda/envs/psifour/share/psi4/basis/cc-pvdz-jkfit.gbs 
    atoms 22           entry CL         line   667 file /home/maxbuskirk/.conda/envs/psifour/share/psi4/basis/cc-pvdz-jkfit.gbs 

   => Loading Basis Set <=

    Name: CC-PVDZ
    Role: ORBITAL
    Keyword: BASIS
    atoms 1-12         entry C          line   138 file /home/maxbuskirk/.conda/envs/psifour/share/psi4/basis/cc-pvdz.gbs 
    atoms 13-21, 23-27 entry H          line    22 file /home/maxbuskirk/.conda/envs/psifour/share/psi4/basis/cc-pvdz.gbs 
    atoms 22           entry CL         line   658 file /home/maxbuskirk/.conda/envs/psifour/share/psi4/basis/cc-pvdz.gbs 

  Reading orbitals from file /tmp/2-2ndcornerCl.mol.2542930.180.npy, no projection.

  ==> Integral Setup <==

  DFHelper Memory: AOs need 0.577 GiB; user supplied 22.352 GiB. Using in-core AOs.

  ==> MemDFJK: Density-Fitted J/K Matrices <==

    J tasked:                   Yes
    K tasked:                   Yes
    wK tasked:                   No
    OpenMP threads:               1
    Memory [MiB]:             22888
    Algorithm:                 Core
    Schwarz Cutoff:           1E-12
    Mask sparsity (%):      10.9070
    Fitting Condition:        1E-10

   => Auxiliary Basis Set <=

  Basis Set: (CC-PVDZ AUX)
    Blend: CC-PVDZ-JKFIT
    Number of shells: 450
    Number of basis functions: 1274
    Number of Cartesian functions: 1452
    Spherical Harmonics?: true
    Max angular momentum: 3

  Minimum eigenvalue in the overlap matrix is 3.0640308437E-04.
  Reciprocal condition number of the overlap matrix is 4.3581910434E-05.
    Using symmetric orthogonalization.

  ==> Pre-Iterations <==

  SCF Guess: Orbitals guess was supplied from a previous computation.

   -------------------------------------------------------
    Irrep   Nso     Nmo     Nalpha   Nbeta   Ndocc  Nsocc
   -------------------------------------------------------
     A        256     256      51      51      51       0
   -------------------------------------------------------
    Total     256     256      51      51      51       0
   -------------------------------------------------------

  ==> Iterations <==

                           Total Energy        Delta E     RMS |[F,P]|

   @DF-RHF iter   0:  -921.55942671458070   -9.21559e+02   7.61220e-04 
   @DF-RHF iter   1:  -921.70855709345028   -1.49130e-01   2.70901e-04 DIIS
   @DF-RHF iter   2:  -921.71122800618991   -2.67091e-03   1.23148e-04 DIIS
   @DF-RHF iter   3:  -921.71175595400757   -5.27948e-04   2.49896e-05 DIIS
   @DF-RHF iter   4:  -921.71179901245307   -4.30584e-05   1.04410e-05 DIIS
   @DF-RHF iter   5:  -921.71180937207373   -1.03596e-05   4.55533e-06 DIIS
   @DF-RHF iter   6:  -921.71181157056697   -2.19849e-06   1.34067e-06 DIIS
   @DF-RHF iter   7:  -921.71181180106919   -2.30502e-07   4.65169e-07 DIIS
   @DF-RHF iter   8:  -921.71181182437806   -2.33089e-08   1.91335e-07 DIIS
   @DF-RHF iter   9:  -921.71181182939802   -5.01996e-09   8.56305e-08 DIIS
   @DF-RHF iter  10:  -921.71181183085150   -1.45349e-09   4.00262e-08 DIIS
   @DF-RHF iter  11:  -921.71181183112208   -2.70575e-10   1.98563e-08 DIIS
   @DF-RHF iter  12:  -921.71181183116732   -4.52474e-11   5.74549e-09 DIIS
   @DF-RHF iter  13:  -921.71181183117096   -3.63798e-12   1.94168e-09 DIIS
   @DF-RHF iter  14:  -921.71181183117528   -4.32010e-12   5.82340e-10 DIIS
   @DF-RHF iter  15:  -921.71181183117221    3.06954e-12   1.92088e-10 DIIS
   @DF-RHF iter  16:  -921.71181183117267   -4.54747e-13   8.04551e-11 DIIS
  Energy and wave function converged.


  ==> Post-Iterations <==

    Orbital Energies [Eh]
    ---------------------

    Doubly Occupied:                                                      

       1A   -104.933424     2A    -11.491745     3A    -11.474401  
       4A    -11.447438     5A    -11.424871     6A    -11.401395  
       7A    -11.396374     8A    -11.395728     9A    -11.388538  
      10A    -11.384214    11A    -11.381965    12A    -11.377117  
      13A    -11.376284    14A    -10.660298    15A     -8.127938  
      16A     -8.124297    17A     -8.124243    18A     -1.399845  
      19A     -1.303242    20A     -1.238656    21A     -1.229062  
      22A     -1.154651    23A     -1.151389    24A     -1.130305  
      25A     -1.093303    26A     -0.971622    27A     -0.968927  
      28A     -0.964822    29A     -0.919331    30A     -0.878634  
      31A     -0.843471    32A     -0.797051    33A     -0.779777  
      34A     -0.774711    35A     -0.762133    36A     -0.751863  
      37A     -0.725897    38A     -0.720036    39A     -0.681883  
      40A     -0.672336    41A     -0.655757    42A     -0.648286  
      43A     -0.644592    44A     -0.638299    45A     -0.627851  
      46A     -0.624459    47A     -0.595290    48A     -0.569156  
      49A     -0.551158    50A     -0.470858    51A     -0.447150  

    Virtual:                                                              

      52A     -0.102897    53A     -0.029584    54A     -0.011129  
      55A     -0.005798    56A      0.020419    57A      0.043616  
      58A      0.066296    59A      0.074608    60A      0.088509  
      61A      0.094534    62A      0.110487    63A      0.115064  
      64A      0.121125    65A      0.135829    66A      0.137138  
      67A      0.149291    68A      0.153675    69A      0.167850  
      70A      0.183626    71A      0.204136    72A      0.214721  
      73A      0.218295    74A      0.253486    75A      0.257494  
      76A      0.293704    77A      0.312413    78A      0.320624  
      79A      0.334571    80A      0.350406    81A      0.357786  
      82A      0.407563    83A      0.429754    84A      0.461239  
      85A      0.462824    86A      0.484674    87A      0.495952  
      88A      0.508467    89A      0.513473    90A      0.516284  
      91A      0.527657    92A      0.533903    93A      0.557969  
      94A      0.565001    95A      0.570605    96A      0.580402  
      97A      0.592881    98A      0.598621    99A      0.604865  
     100A      0.610659   101A      0.616348   102A      0.627497  
     103A      0.643454   104A      0.648554   105A      0.659136  
     106A      0.664256   107A      0.674503   108A      0.682759  
     109A      0.691583   110A      0.695826   111A      0.698711  
     112A      0.705548   113A      0.710255   114A      0.722415  
     115A      0.731016   116A      0.742688   117A      0.746477  
     118A      0.752198   119A      0.761233   120A      0.768804  
     121A      0.784768   122A      0.789059   123A      0.791701  
     124A      0.794689   125A      0.800677   126A      0.820623  
     127A      0.829969   128A      0.853637   129A      0.871925  
     130A      0.880069   131A      0.886490   132A      0.897855  
     133A      0.955263   134A      0.979100   135A      0.987848  
     136A      1.010374   137A      1.022994   138A      1.024612  
     139A      1.034602   140A      1.068505   141A      1.081480  
     142A      1.096415   143A      1.104324   144A      1.106954  
     145A      1.133742   146A      1.143526   147A      1.166370  
     148A      1.175955   149A      1.195896   150A      1.217505  
     151A      1.228455   152A      1.261036   153A      1.265545  
     154A      1.294465   155A      1.298005   156A      1.315989  
     157A      1.344940   158A      1.365789   159A      1.368734  
     160A      1.382302   161A      1.418378   162A      1.437170  
     163A      1.455474   164A      1.471847   165A      1.499927  
     166A      1.518027   167A      1.544973   168A      1.557615  
     169A      1.567235   170A      1.576504   171A      1.590440  
     172A      1.624697   173A      1.629352   174A      1.642354  
     175A      1.659737   176A      1.679198   177A      1.684088  
     178A      1.693358   179A      1.696626   180A      1.728279  
     181A      1.739485   182A      1.751183   183A      1.761994  
     184A      1.775190   185A      1.776305   186A      1.786624  
     187A      1.795008   188A      1.800436   189A      1.813002  
     190A      1.819473   191A      1.830595   192A      1.836765  
     193A      1.849507   194A      1.860346   195A      1.873945  
     196A      1.882096   197A      1.888530   198A      1.897434  
     199A      1.921863   200A      1.925894   201A      1.934974  
     202A      1.940615   203A      1.945073   204A      1.968637  
     205A      1.974601   206A      2.008846   207A      2.013608  
     208A      2.022858   209A      2.047630   210A      2.063476  
     211A      2.076028   212A      2.088082   213A      2.091795  
     214A      2.106912   215A      2.117754   216A      2.133783  
     217A      2.148549   218A      2.177824   219A      2.191090  
     220A      2.202301   221A      2.205216   222A      2.233991  
     223A      2.256043   224A      2.269993   225A      2.289334  
     226A      2.306667   227A      2.310326   228A      2.318833  
     229A      2.360791   230A      2.372401   231A      2.422467  
     232A      2.428022   233A      2.455795   234A      2.500996  
     235A      2.535199   236A      2.541727   237A      2.578911  
[...]
      10        0.000481494569     0.000029011367     0.001481538692
      11       -0.001600337076     0.004574341944    -0.029775822600
      12       -0.014400103768     0.008181260599     0.054371220407
      13       -0.000114960897    -0.001278447534     0.002149381450
      14        0.000615507530     0.000090317321    -0.000508378753
      15       -0.000441936907     0.001198281115     0.000094067769
      16       -0.000743472535    -0.000358731518    -0.000120482761
      17        0.000145792308    -0.000134140605     0.000593584334
      18       -0.000214844323     0.000407795223    -0.000029576859
      19       -0.000156720885     0.000227055349    -0.000237283623
      20       -0.000091027826     0.000335595873    -0.000135278416
      21       -0.000320121605     0.000140249542    -0.000151833590
      22        0.000072621332    -0.000000181397    -0.000011342225
      23       -0.000083099369    -0.000218539011     0.000221910293
      24        0.000197682100    -0.000191311859     0.000042980280
      25        0.000700450957    -0.001393749403    -0.002905437413
      26        0.002189579239     0.002261063613    -0.002987206984
      27        0.012080354320    -0.012835126462    -0.024513096892


*** tstop() called on skystd06.palmetto.clemson.edu at Thu Oct 14 20:55:21 2021
Module time:
	user time   =      84.63 seconds =       1.41 minutes
	system time =       4.72 seconds =       0.08 minutes
	total time  =         91 seconds =       1.52 minutes
Total time:
	user time   =     920.16 seconds =      15.34 minutes
	system time =      46.65 seconds =       0.78 minutes
	total time  =        978 seconds =      16.30 minutes

			-----------------------------------------
			 OPTKING 2.0: for geometry optimizations 
			  - R.A. King,  Bethel University        
			-----------------------------------------

	Previous internal coordinate definitions found.
	---Fragment 1 Geometry and Gradient---
	 C          -1.6152581196        1.6455106100       -1.5727294454
	 C           0.4145506550        0.3906397334       -0.3980623077
	 C          -0.0743136345       -1.5188062330        1.3985775424
	 C          -2.5638761438       -2.1773650230        2.0038347337
	 C          -4.5776069709       -0.9235698476        0.8027705546
	 C          -4.1113868047        0.9868814668       -0.9846809729
	 C           3.1090275386        1.1035899305       -0.8730247207
	 C           4.6380643910        2.8419140000        0.9026897965
	 C           6.9548941337        1.2213043508        1.6076635239
	 C           7.5360801974       -0.2878564154       -0.8229829266
	 C           4.9091395780       -0.7427295434       -1.8809468534
	 C           3.6417794392        1.6312032677       -3.7337855549
	 H           4.3170373524       -2.5402661143       -2.7166982678
	 H           8.4790307412       -2.1174463204       -0.5112804000
	 H           8.7398081590        0.7870642854       -2.1406750433
	 H           6.4073217043       -0.1132458600        3.1139240641
	 H           8.5789418992        2.3231040294        2.2918071641
	 H           3.4805041662        3.3801264107        2.5411888448
	 H           5.1864175510        4.5978622607       -0.0799610504
	 H          -1.2758758467        3.1583694705       -2.9429074545
	 H          -5.6959792279        1.9473253772       -1.8973481107
	 CL         -7.6559137415       -1.7406342798        1.5325446177
	 H          -2.9556983680       -3.6563733354        3.3914480661
	 H           1.4921608271       -2.4949549578        2.3383634454
	 H           2.8655886019        0.1903870541       -5.0571131942
	 H           5.6340677560        2.0267911668       -4.3212732147
	 H           2.9548329508        3.2466399543       -4.9074055864
	            -0.0002731369       -0.0006759600       -0.0009454496
	             0.0003416239        0.0002916172       -0.0014775988
	             0.0001262168        0.0000454747        0.0009394858
	             0.0007524602        0.0000287227        0.0001652928
	            -0.0006889620       -0.0000231764       -0.0000213851
	             0.0001756140        0.0003545070       -0.0003317705
	            -0.0006646515        0.0006642513        0.0049985278
	             0.0015944829       -0.0014753111       -0.0007042916
	             0.0003194953       -0.0002448697       -0.0002017539
	             0.0004814946        0.0000290114        0.0014815387
	            -0.0016003371        0.0045743419       -0.0297758226
	            -0.0144001038        0.0081812606        0.0543712204
	            -0.0001149609       -0.0012784475        0.0021493815
	             0.0006155075        0.0000903173       -0.0005083788
	            -0.0004419369        0.0011982811        0.0000940678
	            -0.0007434725       -0.0003587315       -0.0001204828
	             0.0001457923       -0.0001341406        0.0005935843
	            -0.0002148443        0.0004077952       -0.0000295769
	            -0.0001567209        0.0002270553       -0.0002372836
	            -0.0000910278        0.0003355959       -0.0001352784
	            -0.0003201216        0.0001402495       -0.0001518336
	             0.0000726213       -0.0000001814       -0.0000113422
	            -0.0000830994       -0.0002185390        0.0002219103
	             0.0001976821       -0.0001913119        0.0000429803
	             0.0007004510       -0.0013937494       -0.0029054374
	             0.0021895792        0.0022610636       -0.0029872070
	             0.0120803543       -0.0128351265       -0.0245130969

	---Fragment 1 Intrafragment Coordinates---
	 - Coordinate -           - BOHR/RAD -       - ANG/DEG -
	 R(1,2)           =         2.659825	       1.407519
	 R(1,6)           =         2.647688	       1.401096
	 R(1,20)          =         2.069133	       1.094938
	 R(2,3)           =         2.667000	       1.411315
	 R(2,7)           =         2.827383	       1.496186
	 R(3,4)           =         2.645365	       1.399867
	 R(3,24)          =         2.071209	       1.096037
	 R(4,5)           =         2.658885	       1.407021
	 R(4,23)          =         2.065541	       1.093037
	 R(5,6)           =         2.657474	       1.406275
	 R(5,22)          =         3.267436	       1.729053
	 R(6,21)          =         2.065514	       1.093023
	 R(7,8)           =         2.917685	       1.543972
	 R(7,11)          =         2.768611	       1.465086
	 R(7,12)          =         2.957390	       1.564983
	 R(8,9)           =         2.913943	       1.541992
	 R(8,18)          =         2.077089	       1.099148
	 R(8,19)          =         2.085581	       1.103642
	 R(9,10)          =         2.919484	       1.544924
	 R(9,16)          =         2.085589	       1.103646
	 R(9,17)          =         2.078352	       1.099816
	 R(10,11)         =         2.868277	       1.517827
	 R(10,14)         =         2.081757	       1.101619
	 R(10,15)         =         2.083441	       1.102510
	 R(11,12)         =         3.267227	       1.728942
	 R(11,13)         =         2.068865	       1.094796
	 R(12,25)         =         2.104666	       1.113741
	 R(12,26)         =         2.114437	       1.118912
	 R(12,27)         =         2.111614	       1.117418
	 B(1,2,3)         =         2.089094	     119.696283
	 B(1,2,7)         =         2.134251	     122.283570
	 B(1,6,5)         =         2.087034	     119.578251
	 B(1,6,21)        =         2.105337	     120.626949
	 B(2,1,6)         =         2.099028	     120.265422
	 B(2,1,20)        =         2.108574	     120.812377
	 B(2,3,4)         =         2.100030	     120.322883
	 B(2,3,24)        =         2.099547	     120.295193
	 B(2,7,8)         =         2.150075	     123.190210
	 B(2,7,11)        =         2.109030	     120.838522
	 B(2,7,12)        =         1.959684	     112.281602
	 B(3,2,7)         =         2.058257	     117.929450
	 B(3,4,5)         =         2.085193	     119.472747
	 B(3,4,23)        =         2.106544	     120.696091
	 B(4,3,24)        =         2.083601	     119.381516
	 B(4,5,6)         =         2.105932	     120.660988
	 B(4,5,22)        =         2.088302	     119.650890
	 B(5,4,23)        =         2.091442	     119.830810
	 B(5,6,21)        =         2.090809	     119.794541
	 B(6,1,20)        =         2.075543	     118.919869
	 B(6,5,22)        =         2.088952	     119.688121
	 B(7,8,9)         =         1.805504	     103.447751
	 B(7,8,18)        =         1.920284	     110.024152
	 B(7,8,19)        =         1.931207	     110.650015
	 B(7,11,10)       =         1.934181	     110.820421
	 B(7,11,12)       =         1.011844	      57.974364
	 B(7,11,13)       =         2.141709	     122.710885
	 B(7,12,11)       =         0.916856	      52.531951
	 B(7,12,25)       =         2.003852	     114.812269
	 B(7,12,26)       =         2.062220	     118.156482
	 B(7,12,27)       =         2.233834	     127.989249
	 B(8,7,11)        =         1.852660	     106.149589
	 B(8,7,12)        =         1.969280	     112.831454
	 B(8,9,10)        =         1.817645	     104.143363
	 B(8,9,16)        =         1.898488	     108.775362
	 B(8,9,17)        =         1.988967	     113.959415
	 B(9,8,18)        =         1.978350	     113.351103
	 B(9,8,19)        =         1.953248	     111.912840
	 B(9,10,11)       =         1.779045	     101.931753
	 B(9,10,14)       =         2.004046	     114.823375
	 B(9,10,15)       =         1.955058	     112.016595
	 B(10,9,16)       =         1.899465	     108.831338
	 B(10,9,17)       =         1.974190	     113.112737
	 B(10,11,12)      =         2.036676	     116.692949
	 B(10,11,13)      =         2.151854	     123.292129
	 B(11,7,12)       =         1.212894	      69.493685
	 B(11,10,14)      =         1.907839	     109.311118
	 B(11,10,15)      =         1.958091	     112.190366
	 B(11,12,25)      =         1.573010	      90.126859
	 B(11,12,26)      =         1.498745	      85.871739
	 B(11,12,27)      =         3.067268	     175.741494
	 B(12,11,13)      =         1.866271	     106.929453
	 B(14,10,15)      =         1.861301	     106.644709
	 B(16,9,17)       =         1.882466	     107.857335
	 B(18,8,19)       =         1.875530	     107.459962
	 B(25,12,26)      =         1.876401	     107.509862
	 B(25,12,27)      =         1.625109	      93.111911
	 B(26,12,27)      =         1.579769	      90.514092
	 D(1,2,3,4)       =         0.006504	       0.372661
	 D(1,2,3,24)      =        -3.131003	    -179.393257
	 D(1,2,7,8)       =         1.705822	      97.736398
	 D(1,2,7,11)      =        -2.115664	    -121.218594
	 D(1,2,7,12)      =        -0.742431	     -42.538158
	 D(1,6,5,4)       =         0.000000	       0.000000
	 D(1,6,5,22)      =         3.141593	     180.000000
	 D(2,1,6,5)       =         0.008759	       0.501835
	 D(2,1,6,21)      =        -3.136069	    -179.683536
	 D(2,3,4,5)       =         0.002157	       0.123561
	 D(2,3,4,23)      =         3.139980	     179.907588
	 D(2,7,8,9)       =         2.155913	     123.524701
	 D(2,7,8,18)      =         0.037206	       2.131761
	 D(2,7,8,19)      =        -2.032673	    -116.463558
	 D(2,7,11,10)     =        -2.555549	    -146.422160
	 D(2,7,11,12)     =         1.821590	     104.369426
	 D(2,7,11,13)     =         0.244317	      13.998310
	 D(2,7,12,11)     =        -2.024405	    -115.989854
	 D(2,7,12,25)     =        -0.812537	     -46.554959
	 D(2,7,12,26)     =        -3.056421	    -175.120041
	 D(2,7,12,27)     =         1.210468	      69.354705
	 D(3,2,1,6)       =        -0.012004	      -0.687763
	 D(3,2,1,20)      =         3.119789	     178.750741
	 D(3,2,7,8)       =        -1.375097	     -78.787256
	 D(3,2,7,11)      =         1.086603	      62.257752
	 D(3,2,7,12)      =         2.459835	     140.938188
	 D(3,4,5,6)       =        -0.005445	      -0.312001
	 D(3,4,5,22)      =         3.136161	     179.688791
	 D(4,3,2,7)       =         3.089049	     176.989465
	 D(4,5,6,21)      =        -3.138383	    -179.816108
	 D(5,4,3,24)      =         3.139701	     179.891611
	 D(5,6,1,20)      =        -3.123218	    -178.947220
	 D(6,1,2,7)       =        -3.091883	    -177.151867
	 D(6,5,4,23)      =         3.139884	     179.902077
	 D(7,2,1,20)      =         0.039909	       2.286636
	 D(7,2,3,24)      =        -0.048458	      -2.776454
	 D(7,8,9,10)      =         0.620712	      35.564157
	 D(7,8,9,16)      =        -1.402617	     -80.364061
	 D(7,8,9,17)      =         2.779824	     159.272191
	 D(7,11,10,9)     =         0.375630	      21.522016
	 D(7,11,10,14)    =         2.503519	     143.441095
	 D(7,11,10,15)    =        -1.718760	     -98.477672
	 D(7,11,12,25)    =        -2.125899	    -121.805066
	 D(7,11,12,26)    =         2.280231	     130.647602
	 D(7,11,12,27)    =         1.721941	      98.659978
	 D(7,12,11,10)    =        -1.726182	     -98.902965
	 D(7,12,11,13)    =         2.066772	     118.417329
	 D(8,7,11,10)     =         0.006364	       0.364654
	 D(8,7,11,12)     =        -1.899682	    -108.843760
	 D(8,7,11,13)     =         2.806230	     160.785124
	 D(8,7,12,11)     =         1.736298	      99.482563
	 D(8,7,12,25)     =         2.948166	     168.917458
	 D(8,7,12,26)     =         0.704282	      40.352376
	 D(8,7,12,27)     =        -1.312014	     -75.172878
	 D(8,9,10,11)     =        -0.606106	     -34.727311
	 D(8,9,10,14)     =        -2.666366	    -152.771528
	 D(8,9,10,15)     =         1.490412	      85.394315
	 D(9,8,7,11)      =        -0.388882	     -22.281286
	 D(9,8,7,12)      =        -1.682343	     -96.391173
	 D(9,10,11,12)    =         1.486564	      85.173821
	 D(9,10,11,13)    =        -2.421883	    -138.763688
	 D(10,9,8,18)     =         2.699828	     154.688759
	 D(10,9,8,19)     =        -1.458762	     -83.580933
	 D(10,11,7,12)    =         1.906046	     109.208414
	 D(10,11,12,25)   =         2.431103	     139.291969
	 D(10,11,12,26)   =         0.554048	      31.744637
	 D(10,11,12,27)   =        -0.004241	      -0.242987
	 D(11,7,8,18)     =        -2.507588	    -143.674226
	 D(11,7,8,19)     =         1.705718	      97.730455
	 D(11,7,12,25)    =         1.211868	      69.434895
	 D(11,7,12,26)    =        -1.032016	     -59.130188
	 D(11,7,12,27)    =        -3.048313	    -174.655441
	 D(11,10,9,16)    =         1.416538	      81.161671
	 D(11,10,9,17)    =        -2.774768	    -158.982468
	 D(12,7,8,18)     =         2.482135	     142.215887
	 D(12,7,8,19)     =         0.412257	      23.620567
	 D(12,7,11,13)    =        -1.577274	     -90.371116
	 D(12,11,10,14)   =        -2.668732	    -152.907100
	 D(12,11,10,15)   =        -0.607826	     -34.825867
	 D(13,11,10,14)   =        -0.293994	     -16.844608
	 D(13,11,10,15)   =         1.766912	     101.236624
	 D(13,11,12,25)   =        -0.059127	      -3.387737
	 D(13,11,12,26)   =        -1.936182	    -110.935069
	 D(13,11,12,27)   =        -2.494472	    -142.922692
	 D(14,10,9,16)    =        -0.643722	     -36.882546
	 D(14,10,9,17)    =         1.448158	      82.973315
	 D(15,10,9,16)    =        -2.770129	    -158.716703
	 D(15,10,9,17)    =        -0.678250	     -38.860842
	 D(16,9,8,18)     =         0.676499	      38.760540
	 D(16,9,8,19)     =         2.801094	     160.490848
	 D(17,9,8,18)     =        -1.424245	     -81.603208
	 D(17,9,8,19)     =         0.700350	      40.127100
	 D(20,1,6,21)     =         0.015139	       0.867410
	 D(21,6,5,22)     =         0.003196	       0.183099
	 D(22,5,4,23)     =        -0.001695	      -0.097131
	 D(23,4,3,24)     =        -0.005661	      -0.324362

	Current energy   :      -923.5543043980

	Energy change for the previous step:
		Projected    :        -0.0050777652
		Actual       :        -0.0058870770

	Performing Bofill update.
	Previous computed or guess Hessian on step 1.
	Steps to be used in Hessian update: 8 7
	Taking PRFO optimization step.
	Maximizing along 1 lowest eigenvalue of Hessian.

 RFO min eigenvalues
 -0.003906 -0.000000 -0.000000 -0.000000 -0.000000 -0.000000 -0.000000 -0.000000
 -0.000000 -0.000000 -0.000000 -0.000000 -0.000000 -0.000000 -0.000000 -0.000000
 -0.000000 -0.000000 -0.000000 -0.000000 -0.000000 -0.000000 -0.000000 -0.000000
 -0.000000 -0.000000 -0.000000 -0.000000 -0.000000 -0.000000 -0.000000 -0.000000
 -0.000000 -0.000000 -0.000000 -0.000000 -0.000000 -0.000000 -0.000000 -0.000000
 -0.000000 -0.000000 -0.000000 -0.000000 -0.000000 -0.000000 -0.000000 -0.000000
 -0.000000 -0.000000 -0.000000 -0.000000 -0.000000 -0.000000 -0.000000 -0.000000
  0.000000  0.000000  0.000000  0.000000  0.000000  0.000000  0.000000  0.000000
  0.000000  0.000000  0.000000  0.000000  0.000000  0.000000  0.000000  0.000000
  0.000000  0.000000  0.000000  0.000000  0.000000  0.000000  0.000000  0.000000
  0.000000  0.000000  0.000000  0.000000  0.000000  0.000000  0.000000  0.000000
  0.000000  0.000000  0.000000  0.000000  0.000000  0.000000  0.000000  0.000000
  0.000000  0.000000  0.000000  0.000000  0.000000  0.000000  0.000000  0.000000
  0.000000  0.000000  0.000000  0.000000  0.000000  0.003731  0.006017  0.008013
  0.012453  0.012552  0.015207  0.016512  0.016997  0.017280  0.017380  0.017498
  0.017536  0.017593  0.017608  0.017665  0.021194  0.027598  0.029276  0.037402
  0.043030  0.050174  0.053945  0.058139  0.061129  0.065413  0.068927  0.069805
  0.070225  0.078629  0.082087  0.091011  0.096163  0.098957  0.105587  0.110730
  0.159866  0.159986  0.159997  0.160039  0.167923  0.201680  0.204133  0.220019
  0.229693  0.239951  0.249781  0.249997  0.263680  0.266274  0.276320  0.290643
  0.302809  0.314768  0.331154  0.331298  0.331543  0.331824  0.333280  0.335056
  0.335228  0.341745  0.342652  0.343061  0.343072  0.343444  0.343625  0.343790
  0.373943  0.407313  0.409215  0.442421  0.445164  0.448705  0.450855

 RFO max eigenvalues
 -0.014368  0.000464
	Change in coordinate exceeds step limit of    0.50000.
	Scaling displacements by    0.94676
	|RFO target step|  :        0.5000000000
	RFO gradient       :       -0.0065182902
	RFO hessian        :        0.0089419652
	Projected Delta(E) :       -0.0017131196

	Back-transformation to cartesian coordinates...
	The INTCO_EXCEPTion handler:
	TORS::compute_val: unable to compute torsion value
	Dynamic level is 0.
	exc.g_really_quit() is 0.

  **** Optimization has failed! (in 9 steps) ****
			--------------------------
			 OPTKING Finished Execution 
			--------------------------
	Removing binary optimization data file.
	Cleaning optimization helper files.

PsiException: Could not converge geometry optimization in 8 iterations.


Traceback (most recent call last):
  File "/home/maxbuskirk/.conda/envs/psifour/bin/psi4", line 333, in <module>
    exec(content)
  File "<string>", line 58, in <module>
  File "/home/maxbuskirk/.conda/envs/psifour/lib//python3.9/site-packages/psi4/driver/driver.py", line 1433, in optimize
    raise OptimizationConvergenceError("""geometry optimization""", n - 1, wfn)

psi4.driver.p4util.exceptions.OptimizationConvergenceError: Could not converge geometry optimization in 8 iterations.


Printing out the relevant lines from the Psithon --> Python processed input file:
    core.set_global_option("BASIS", "cc-pVDZ")
    core.set_global_option("REFERENCE", "rhf")
    core.set_global_option("GEOM_MAXITER", 400)
    mol.update_geometry()
    mol.symmetrize(1e-3)
--> e, wfn = optimize('mp2', return_wfn=True)
    oeprop(wfn, "MULLIKEN_CHARGES")
    mol.print_out()
    print_variables()

!------------------------------------------------------------!
!                                                            !
!  Could not converge geometry optimization in 8 iterations. !
!                                                            !
!------------------------------------------------------------!

    Psi4 stopped on: Thursday, 14 October 2021 08:55PM
    Psi4 wall time for execution: 0:16:17.82

*** Psi4 encountered an error. Buy a developer more coffee!
*** Resources and help at github.com/psi4/psi4.
