
    -----------------------------------------------------------------------
          Psi4: An Open-Source Ab Initio Electronic Structure Package
                               Psi4 1.4 release

                         Git: Rev {HEAD} 9485035 


    D. G. A. Smith, L. A. Burns, A. C. Simmonett, R. M. Parrish,
    M. C. Schieber, R. Galvelis, P. Kraus, H. Kruse, R. Di Remigio,
    A. Alenaizan, A. M. James, S. Lehtola, J. P. Misiewicz, M. Scheurer,
    R. A. Shaw, J. B. Schriber, Y. Xie, Z. L. Glick, D. A. Sirianni,
    J. S. O'Brien, J. M. Waldrop, A. Kumar, E. G. Hohenstein,
    B. P. Pritchard, B. R. Brooks, H. F. Schaefer III, A. Yu. Sokolov,
    K. Patkowski, A. E. DePrince III, U. Bozkaya, R. A. King,
    F. A. Evangelista, J. M. Turney, T. D. Crawford, C. D. Sherrill,
    J. Chem. Phys. 152(18) 184108 (2020). https://doi.org/10.1063/5.0006002

                            Additional Code Authors
    E. T. Seidl, C. L. Janssen, E. F. Valeev, M. L. Leininger,
    J. F. Gonthier, R. M. Richard, H. R. McAlexander, M. Saitow, X. Wang,
    P. Verma, and M. H. Lechner

             Previous Authors, Complete List of Code Contributors,
                       and Citations for Specific Modules
    https://github.com/psi4/psi4/blob/master/codemeta.json
    https://github.com/psi4/psi4/graphs/contributors
    http://psicode.org/psi4manual/master/introduction.html#citing-psifour

    -----------------------------------------------------------------------


    Psi4 started on: Friday, 12 November 2021 01:42AM

    Process ID: 1279261
    Host:       skystd14.palmetto.clemson.edu
    PSIDATADIR: /home/maxbuskirk/.conda/envs/psifour/share/psi4
    Memory:     500.0 MiB
    Threads:    1
    
  ==> Input File <==

--------------------------------------------------------------------------
memory 32 GB

molecule mol {
1 1
 C     1.263455    -0.830095     0.301389
 C     0.109287    -0.071802     0.026070
 C    -0.866981    -0.615472    -0.835100
 C    -0.695421    -1.885914    -1.404542
 C     0.458870    -2.635169    -1.118854
 C     1.437612    -2.104158    -0.263687
 C    -0.074111     1.299690     0.586965
 C     0.015315     2.507717    -0.364566
 C    -1.356829     3.200190    -0.246615
 C    -1.779295     2.983952     1.221143
 C    -1.190588     1.620997     1.584855
 C     0.256381     1.583570     2.036784
 O     0.627353    -3.887603    -1.673311
 H     2.030351    -0.413010     0.962045
 H     2.339320    -2.681782    -0.037785
 H    -1.464833    -2.295724    -2.066212
 H    -1.772726    -0.036766    -1.047330
 H     0.561801     0.737340     2.658683
 H     0.739137     2.537536     2.274436
 H    -2.074849     2.677217    -0.903124
 H    -1.339762     4.261400    -0.547689
 H    -2.873814     3.001236     1.344677
 H    -1.364046     3.776898     1.868778
 H    -1.846742     0.816672     1.930608
 H     0.234839     2.183127    -1.393952
 H     0.827707     3.188298    -0.051567
 H    -1.181731     2.110837     2.315008
 H     1.450626    -4.253727    -1.381794
}

set scf_type df
set opt_type ts
set basis cc-pVDZ
set reference rhf
set geom_maxiter 400


mol.update_geometry()
mol.symmetrize(1e-3)

e, wfn = optimize('mp2', return_wfn=True)
oeprop(wfn, "MULLIKEN_CHARGES")
mol.print_out()
print_variables()
--------------------------------------------------------------------------

  Memory set to  29.802 GiB by Python driver.

Scratch directory: /tmp/
gradient() will perform analytic gradient computation.

*** tstart() called on skystd14.palmetto.clemson.edu
*** at Fri Nov 12 01:42:35 2021

   => Loading Basis Set <=

    Name: CC-PVDZ
    Role: ORBITAL
    Keyword: BASIS
    atoms 1-12  entry C          line   138 file /home/maxbuskirk/.conda/envs/psifour/share/psi4/basis/cc-pvdz.gbs 
    atoms 13    entry O          line   198 file /home/maxbuskirk/.conda/envs/psifour/share/psi4/basis/cc-pvdz.gbs 
    atoms 14-28 entry H          line    22 file /home/maxbuskirk/.conda/envs/psifour/share/psi4/basis/cc-pvdz.gbs 


         ---------------------------------------------------------
                                   SCF
               by Justin Turney, Rob Parrish, Andy Simmonett
                          and Daniel G. A. Smith
                              RHF Reference
                        1 Threads,  30517 MiB Core
         ---------------------------------------------------------

  ==> Geometry <==

    Molecular point group: c1
    Full point group: C1

    Geometry (in Angstrom), charge = 1, multiplicity = 1:

       Center              X                  Y                   Z               Mass       
    ------------   -----------------  -----------------  -----------------  -----------------
         C            1.405151500563    -0.911139518231     0.315706778412    12.000000000000
         C            0.250983500563    -0.152846518231     0.040387778412    12.000000000000
         C           -0.725284499437    -0.696516518231    -0.820782221588    12.000000000000
         C           -0.553724499437    -1.966958518231    -1.390224221588    12.000000000000
         C            0.600566500563    -2.716213518231    -1.104536221588    12.000000000000
         C            1.579308500563    -2.185202518231    -0.249369221588    12.000000000000
         C            0.067585500563     1.218645481769     0.601282778412    12.000000000000
         C            0.157011500563     2.426672481769    -0.350248221588    12.000000000000
         C           -1.215132499437     3.119145481769    -0.232297221588    12.000000000000
         C           -1.637598499437     2.902907481769     1.235460778412    12.000000000000
         C           -1.048891499437     1.539952481769     1.599172778412    12.000000000000
         C            0.398077500563     1.502525481769     2.051101778412    12.000000000000
         O            0.769049500563    -3.968647518231    -1.658993221588    15.994914619570
         H            2.172047500563    -0.494054518231     0.976362778412     1.007825032230
         H            2.481016500563    -2.762826518231    -0.023467221588     1.007825032230
         H           -1.323136499437    -2.376768518231    -2.051894221588     1.007825032230
         H           -1.631029499437    -0.117810518231    -1.033012221588     1.007825032230
         H            0.703497500563     0.656295481769     2.673000778412     1.007825032230
         H            0.880833500563     2.456491481769     2.288753778412     1.007825032230
         H           -1.933152499437     2.596172481769    -0.888806221588     1.007825032230
         H           -1.198065499437     4.180355481769    -0.533371221588     1.007825032230
         H           -2.732117499437     2.920191481769     1.358994778412     1.007825032230
         H           -1.222349499437     3.695853481769     1.883095778412     1.007825032230
         H           -1.705045499437     0.735627481769     1.944925778412     1.007825032230
         H            0.376535500563     2.102082481769    -1.379634221588     1.007825032230
         H            0.969403500563     3.107253481769    -0.037249221588     1.007825032230
         H           -1.040034499437     2.029792481769     2.329325778412     1.007825032230
         H            1.592322500563    -4.334771518231    -1.367476221588     1.007825032230

  Running in c1 symmetry.

  Rotational constants: A =      0.07223  B =      0.01425  C =      0.01323 [cm^-1]
  Rotational constants: A =   2165.32157  B =    427.17066  C =    396.70186 [MHz]
  Nuclear repulsion =  778.431730275725840

  Charge       = 1
  Multiplicity = 1
  Electrons    = 94
  Nalpha       = 47
  Nbeta        = 47

  ==> Algorithm <==

  SCF Algorithm Type is DF.
  DIIS enabled.
  MOM disabled.
  Fractional occupation disabled.
  Guess Type is SAD.
  Energy threshold   = 1.00e-10
  Density threshold  = 1.00e-10
  Integral threshold = 1.00e-12

  ==> Primary Basis <==

  Basis Set: CC-PVDZ
    Blend: CC-PVDZ
    Number of shells: 123
    Number of basis functions: 257
    Number of Cartesian functions: 270
    Spherical Harmonics?: true
    Max angular momentum: 2

   => Loading Basis Set <=

    Name: (CC-PVDZ AUX)
    Role: JKFIT
    Keyword: DF_BASIS_SCF
    atoms 1-12  entry C          line   121 file /home/maxbuskirk/.conda/envs/psifour/share/psi4/basis/cc-pvdz-jkfit.gbs 
    atoms 13    entry O          line   221 file /home/maxbuskirk/.conda/envs/psifour/share/psi4/basis/cc-pvdz-jkfit.gbs 
    atoms 14-28 entry H          line    51 file /home/maxbuskirk/.conda/envs/psifour/share/psi4/basis/cc-pvdz-jkfit.gbs 

  ==> Integral Setup <==

  DFHelper Memory: AOs need 0.568 GiB; user supplied 22.352 GiB. Using in-core AOs.

  ==> MemDFJK: Density-Fitted J/K Matrices <==

    J tasked:                   Yes
    K tasked:                   Yes
    wK tasked:                   No
    OpenMP threads:               1
    Memory [MiB]:             22888
    Algorithm:                 Core
    Schwarz Cutoff:           1E-12
    Mask sparsity (%):      11.6671
    Fitting Condition:        1E-10

   => Auxiliary Basis Set <=

  Basis Set: (CC-PVDZ AUX)
    Blend: CC-PVDZ-JKFIT
    Number of shells: 447
    Number of basis functions: 1255
    Number of Cartesian functions: 1428
    Spherical Harmonics?: true
    Max angular momentum: 3

  Minimum eigenvalue in the overlap matrix is 3.4214327966E-04.
  Reciprocal condition number of the overlap matrix is 4.5470547752E-05.
    Using symmetric orthogonalization.

  ==> Pre-Iterations <==

  SCF Guess: Superposition of Atomic Densities via on-the-fly atomic UHF (no occupation information).

   -------------------------
    Irrep   Nso     Nmo    
   -------------------------
     A        257     257 
   -------------------------
    Total     257     257
   -------------------------

  ==> Iterations <==

                           Total Energy        Delta E     RMS |[F,P]|

   @DF-RHF iter SAD:  -538.23821296404469   -5.38238e+02   0.00000e+00 
   @DF-RHF iter   1:  -537.39424342811571    8.43970e-01   2.31273e-03 DIIS
   @DF-RHF iter   2:  -537.60736295441768   -2.13120e-01   9.17544e-04 DIIS
   @DF-RHF iter   3:  -537.63531234782442   -2.79494e-02   2.63991e-04 DIIS
   @DF-RHF iter   4:  -537.63871439699062   -3.40205e-03   7.20875e-05 DIIS
   @DF-RHF iter   5:  -537.63892907882791   -2.14682e-04   2.29809e-05 DIIS
   @DF-RHF iter   6:  -537.63896066093866   -3.15821e-05   7.45880e-06 DIIS
   @DF-RHF iter   7:  -537.63896513008285   -4.46914e-06   3.48702e-06 DIIS
   @DF-RHF iter   8:  -537.63896630568115   -1.17560e-06   1.34955e-06 DIIS
   @DF-RHF iter   9:  -537.63896661035187   -3.04671e-07   6.50943e-07 DIIS
   @DF-RHF iter  10:  -537.63896667601080   -6.56589e-08   3.11936e-07 DIIS
   @DF-RHF iter  11:  -537.63896669338124   -1.73704e-08   1.00153e-07 DIIS
   @DF-RHF iter  12:  -537.63896669483847   -1.45724e-09   3.33332e-08 DIIS
   @DF-RHF iter  13:  -537.63896669493761   -9.91349e-11   1.27900e-08 DIIS
   @DF-RHF iter  14:  -537.63896669495182   -1.42109e-11   3.36205e-09 DIIS
   @DF-RHF iter  15:  -537.63896669495170    1.13687e-13   1.32363e-09 DIIS
   @DF-RHF iter  16:  -537.63896669495159    1.13687e-13   5.46911e-10 DIIS
   @DF-RHF iter  17:  -537.63896669495273   -1.13687e-12   2.56613e-10 DIIS
   @DF-RHF iter  18:  -537.63896669495387   -1.13687e-12   1.12201e-10 DIIS
   @DF-RHF iter  19:  -537.63896669495205    1.81899e-12   4.99533e-11 DIIS
  Energy and wave function converged.


  ==> Post-Iterations <==

    Orbital Energies [Eh]
    ---------------------

    Doubly Occupied:                                                      

       1A    -20.696144     2A    -11.483980     3A    -11.468062  
       4A    -11.446630     5A    -11.441554     6A    -11.434873  
       7A    -11.396644     8A    -11.395274     9A    -11.387373  
      10A    -11.386099    11A    -11.384548    12A    -11.364867  
      13A    -11.362885    14A     -1.509960    15A     -1.445901  
      16A     -1.283878    17A     -1.228684    18A     -1.217568  
      19A     -1.145030    20A     -1.134254    21A     -1.041027  
      22A     -1.013712    23A     -0.978320    24A     -0.968140  
      25A     -0.944498    26A     -0.881673    27A     -0.850650  
      28A     -0.828189    29A     -0.821785    30A     -0.783845  
      31A     -0.774414    32A     -0.766496    33A     -0.741097  
      34A     -0.715871    35A     -0.713289    36A     -0.708902  
      37A     -0.692837    38A     -0.682897    39A     -0.666015  
      40A     -0.656736    41A     -0.644887    42A     -0.638360  
      43A     -0.619624    44A     -0.602368    45A     -0.593325  
      46A     -0.466295    47A     -0.440090  

    Virtual:                                                              

      48A     -0.034818    49A     -0.002887    50A      0.012830  
      51A      0.019762    52A      0.032274    53A      0.048318  
      54A      0.054706    55A      0.076873    56A      0.087215  
      57A      0.092690    58A      0.095459    59A      0.106182  
      60A      0.118642    61A      0.136055    62A      0.142327  
      63A      0.146962    64A      0.162049    65A      0.168918  
      66A      0.195866    67A      0.210146    68A      0.225239  
      69A      0.236617    70A      0.244740    71A      0.264508  
      72A      0.293544    73A      0.304895    74A      0.319893  
      75A      0.343864    76A      0.348156    77A      0.357490  
      78A      0.379515    79A      0.390938    80A      0.434563  
      81A      0.439913    82A      0.470368    83A      0.489977  
      84A      0.502148    85A      0.509944    86A      0.520433  
      87A      0.532279    88A      0.535951    89A      0.566413  
      90A      0.571169    91A      0.579863    92A      0.587212  
      93A      0.596235    94A      0.606823    95A      0.620587  
      96A      0.635943    97A      0.637918    98A      0.652471  
      99A      0.656619   100A      0.659364   101A      0.672496  
     102A      0.683916   103A      0.686817   104A      0.699207  
     105A      0.701705   106A      0.706061   107A      0.717255  
     108A      0.724107   109A      0.734754   110A      0.742192  
     111A      0.745712   112A      0.749565   113A      0.755634  
     114A      0.770488   115A      0.773613   116A      0.776357  
     117A      0.786003   118A      0.796882   119A      0.812501  
     120A      0.820313   121A      0.826906   122A      0.847899  
     123A      0.873967   124A      0.894483   125A      0.935658  
     126A      0.966217   127A      0.981823   128A      1.009192  
     129A      1.034606   130A      1.038066   131A      1.044965  
     132A      1.065072   133A      1.108964   134A      1.112375  
     135A      1.116774   136A      1.130073   137A      1.144958  
     138A      1.160233   139A      1.174379   140A      1.176134  
     141A      1.189670   142A      1.199855   143A      1.217902  
     144A      1.235509   145A      1.237431   146A      1.257869  
     147A      1.290040   148A      1.306360   149A      1.318402  
     150A      1.335939   151A      1.350050   152A      1.368264  
     153A      1.397009   154A      1.438948   155A      1.464809  
     156A      1.488958   157A      1.504090   158A      1.508308  
     159A      1.519931   160A      1.554643   161A      1.561771  
     162A      1.602553   163A      1.607275   164A      1.611480  
     165A      1.629827   166A      1.646855   167A      1.654701  
     168A      1.671537   169A      1.678204   170A      1.683969  
     171A      1.701176   172A      1.707346   173A      1.731566  
     174A      1.734451   175A      1.749925   176A      1.756540  
     177A      1.765723   178A      1.772764   179A      1.775160  
     180A      1.782775   181A      1.797271   182A      1.804422  
     183A      1.808714   184A      1.819277   185A      1.825363  
     186A      1.834019   187A      1.839636   188A      1.855485  
     189A      1.873563   190A      1.874978   191A      1.886276  
     192A      1.910971   193A      1.925302   194A      1.933434  
     195A      1.939315   196A      1.950523   197A      1.956541  
     198A      1.984625   199A      2.000675   200A      2.011507  
     201A      2.025252   202A      2.055623   203A      2.068964  
     204A      2.077029   205A      2.083064   206A      2.097507  
     207A      2.113907   208A      2.121632   209A      2.134733  
     210A      2.163906   211A      2.174620   212A      2.196931  
     213A      2.231631   214A      2.236046   215A      2.250615  
     216A      2.258417   217A      2.266454   218A      2.286692  
     219A      2.299301   220A      2.314118   221A      2.339985  
     222A      2.354346   223A      2.368871   224A      2.400283  
     225A      2.410277   226A      2.420659   227A      2.430922  
     228A      2.459062   229A      2.508152   230A      2.514929  
     231A      2.557842   232A      2.585504   233A      2.596469  
     234A      2.608427   235A      2.636499   236A      2.647003  
     237A      2.673897   238A      2.690199   239A      2.721667  
     240A      2.740263   241A      2.781892   242A      2.791865  
     243A      2.816267   244A      2.833770   245A      2.865751  
     246A      2.912468   247A      2.935137   248A      2.993625  
     249A      3.068915   250A      3.108944   251A      3.145177  
     252A      3.229171   253A      3.436914   254A      3.537575  
     255A      3.551932   256A      3.800954   257A      4.085253  

    Final Occupation by Irrep:
              A 
    DOCC [    47 ]

  @DF-RHF Final Energy:  -537.63896669495205

   => Energetics <=

    Nuclear Repulsion Energy =            778.4317302757258403
    One-Electron Energy =               -2258.4422855387210802
    Two-Electron Energy =                 942.3715885680431938
    Total Energy =                       -537.6389666949520461

Computation Completed


Properties will be evaluated at   0.000000,   0.000000,   0.000000 [a0]

Properties computed using the SCF density matrix

  Nuclear Dipole Moment: [e a0]
     X:    -3.3799      Y:    13.4748      Z:     5.7477

  Electronic Dipole Moment: [e a0]
     X:     3.0355      Y:   -10.8709      Z:    -3.4076

  Dipole Moment: [e a0]
     X:    -0.3444      Y:     2.6039      Z:     2.3401     Total:     3.5178

  Dipole Moment: [D]
     X:    -0.8754      Y:     6.6184      Z:     5.9479     Total:     8.9413


*** tstop() called on skystd14.palmetto.clemson.edu at Fri Nov 12 01:42:57 2021
Module time:
	user time   =      20.89 seconds =       0.35 minutes
	system time =       0.90 seconds =       0.02 minutes
	total time  =         22 seconds =       0.37 minutes
Total time:
	user time   =      20.89 seconds =       0.35 minutes
	system time =       0.90 seconds =       0.02 minutes
	total time  =         22 seconds =       0.37 minutes

*** tstart() called on skystd14.palmetto.clemson.edu
*** at Fri Nov 12 01:42:57 2021


  //>>>>>>>>>>>>>>>>>>>>>>>>>>>>>>>>>>>//
  //               DFMP2               //
  //<<<<<<<<<<<<<<<<<<<<<<<<<<<<<<<<<<<//

   => Loading Basis Set <=

    Name: (CC-PVDZ AUX)
    Role: RIFIT
    Keyword: DF_BASIS_MP2
    atoms 1-12  entry C          line   159 file /home/maxbuskirk/.conda/envs/psifour/share/psi4/basis/cc-pvdz-ri.gbs 
    atoms 13    entry O          line   235 file /home/maxbuskirk/.conda/envs/psifour/share/psi4/basis/cc-pvdz-ri.gbs 
    atoms 14-28 entry H          line    19 file /home/maxbuskirk/.conda/envs/psifour/share/psi4/basis/cc-pvdz-ri.gbs 

	 --------------------------------------------------------
	                          DF-MP2                         
	      2nd-Order Density-Fitted Moller-Plesset Theory     
	              RMP2 Wavefunction,   1 Threads             
	                                                         
	        Rob Parrish, Justin Turney, Andy Simmonett,      
	           Ed Hohenstein, and C. David Sherrill          
	 --------------------------------------------------------

   => Auxiliary Basis Set <=

  Basis Set: (CC-PVDZ AUX)
    Blend: CC-PVDZ-RI
    Number of shells: 324
    Number of basis functions: 938
    Number of Cartesian functions: 1083
    Spherical Harmonics?: true
    Max angular momentum: 3

	 --------------------------------------------------------
	                 NBF =   257, NAUX =   938
	 --------------------------------------------------------
	   CLASS    FOCC     OCC    AOCC    AVIR     VIR    FVIR
	   PAIRS       0      47      47     210     210       0
	 --------------------------------------------------------

  DFHelper Memory: AOs need 0.568 GiB; user supplied 22.352 GiB. Using in-core AOs.


         ------------------------------------------------------------
                                     CPHF                           
                                  Rob Parrish                       
         ------------------------------------------------------------

  ==> Geometry <==

    Molecular point group: c1
    Full point group: C1

    Geometry (in Angstrom), charge = 1, multiplicity = 1:

       Center              X                  Y                   Z               Mass       
    ------------   -----------------  -----------------  -----------------  -----------------
         C            1.405151500563    -0.911139518231     0.315706778412    12.000000000000
         C            0.250983500563    -0.152846518231     0.040387778412    12.000000000000
         C           -0.725284499437    -0.696516518231    -0.820782221588    12.000000000000
         C           -0.553724499437    -1.966958518231    -1.390224221588    12.000000000000
         C            0.600566500563    -2.716213518231    -1.104536221588    12.000000000000
         C            1.579308500563    -2.185202518231    -0.249369221588    12.000000000000
         C            0.067585500563     1.218645481769     0.601282778412    12.000000000000
         C            0.157011500563     2.426672481769    -0.350248221588    12.000000000000
         C           -1.215132499437     3.119145481769    -0.232297221588    12.000000000000
         C           -1.637598499437     2.902907481769     1.235460778412    12.000000000000
         C           -1.048891499437     1.539952481769     1.599172778412    12.000000000000
         C            0.398077500563     1.502525481769     2.051101778412    12.000000000000
         O            0.769049500563    -3.968647518231    -1.658993221588    15.994914619570
         H            2.172047500563    -0.494054518231     0.976362778412     1.007825032230
         H            2.481016500563    -2.762826518231    -0.023467221588     1.007825032230
         H           -1.323136499437    -2.376768518231    -2.051894221588     1.007825032230
         H           -1.631029499437    -0.117810518231    -1.033012221588     1.007825032230
         H            0.703497500563     0.656295481769     2.673000778412     1.007825032230
         H            0.880833500563     2.456491481769     2.288753778412     1.007825032230
         H           -1.933152499437     2.596172481769    -0.888806221588     1.007825032230
         H           -1.198065499437     4.180355481769    -0.533371221588     1.007825032230
         H           -2.732117499437     2.920191481769     1.358994778412     1.007825032230
         H           -1.222349499437     3.695853481769     1.883095778412     1.007825032230
         H           -1.705045499437     0.735627481769     1.944925778412     1.007825032230
         H            0.376535500563     2.102082481769    -1.379634221588     1.007825032230
         H            0.969403500563     3.107253481769    -0.037249221588     1.007825032230
         H           -1.040034499437     2.029792481769     2.329325778412     1.007825032230
         H            1.592322500563    -4.334771518231    -1.367476221588     1.007825032230

  Nuclear repulsion =  778.431730275725840
  Reference energy  = -537.638966694952046

  ==> Basis Set <==

  Basis Set: CC-PVDZ
    Blend: CC-PVDZ
    Number of shells: 123
    Number of basis functions: 257
    Number of Cartesian functions: 270
    Spherical Harmonics?: true
    Max angular momentum: 2

  ==> CGRSolver (by Rob Parrish) <==

   Number of roots    =         1
   Preconditioning    =    JACOBI
   Convergence cutoff =     1E-06
   Maximum iterations =       100

  ==> CPHFRHamiltonian (by Rob Parrish) <== 

  ==> MemDFJK: Density-Fitted J/K Matrices <==

    J tasked:                   Yes
    K tasked:                   Yes
    wK tasked:                   No
    OpenMP threads:               1
    Memory [MiB]:             22888
    Algorithm:                 Core
    Schwarz Cutoff:           1E-12
    Mask sparsity (%):      11.6671
    Fitting Condition:        1E-10

   => Auxiliary Basis Set <=

  Basis Set: (CC-PVDZ AUX)
    Blend: CC-PVDZ-JKFIT
    Number of shells: 447
    Number of basis functions: 1255
    Number of Cartesian functions: 1428
    Spherical Harmonics?: true
    Max angular momentum: 3

  ==> CPHF Iterations <==

  => Iterations <=

             Iter  Converged  Remaining    Residual
  CGR           1          0          1   1.109E-01
  CGR           2          0          1   2.761E-02
  CGR           3          0          1   1.719E-02
  CGR           4          0          1   6.394E-03
  CGR           5          0          1   3.125E-03
  CGR           6          0          1   1.201E-03
  CGR           7          0          1   3.825E-04
  CGR           8          0          1   1.119E-04
  CGR           9          0          1   4.100E-05
  CGR          10          0          1   1.223E-05
  CGR          11          0          1   4.207E-06
  CGR          12          0          1   1.516E-06
  CGR          13          1          0   5.825E-07

    CGRSolver converged.

  ==> DFCorrGrad: Density-Fitted Correlated Gradients <==

    OpenMP threads:              1
    Integrals threads:           1
    Memory [GiB]:           22.352
    Schwarz Cutoff:          0E+00
    Fitting Condition:       1E-10

   => Auxiliary Basis Set <=

  Basis Set: (CC-PVDZ AUX)
    Blend: CC-PVDZ-JKFIT
    Number of shells: 447
    Number of basis functions: 1255
    Number of Cartesian functions: 1428
    Spherical Harmonics?: true
    Max angular momentum: 3

	-----------------------------------------------------------
	 ==================> DF-MP2 Energies <==================== 
	-----------------------------------------------------------
	 Reference Energy          =    -537.6389666949520461 [Eh]
	 Singles Energy            =      -0.0000000000000000 [Eh]
	 Same-Spin Energy          =      -0.4844991861847410 [Eh]
	 Opposite-Spin Energy      =      -1.3563880586546921 [Eh]
	 Correlation Energy        =      -1.8408872448394331 [Eh]
	 Total Energy              =    -539.4798539397914965 [Eh]
	-----------------------------------------------------------
	 ================> DF-SCS-MP2 Energies <================== 
	-----------------------------------------------------------
	 SCS Same-Spin Scale       =       0.3333333333333333 [-]
	 SCS Opposite-Spin Scale   =       1.2000000000000000 [-]
	 SCS Same-Spin Energy      =      -0.1614997287282470 [Eh]
	 SCS Opposite-Spin Energy  =      -1.6276656703856305 [Eh]
	 SCS Correlation Energy    =      -1.7891653991138774 [Eh]
	 SCS Total Energy          =    -539.4281320940659725 [Eh]
	-----------------------------------------------------------


  -Total Gradient:
     Atom            X                  Y                   Z
    ------   -----------------  -----------------  -----------------
       1       -0.001180301380    -0.001154373061    -0.003363400494
       2        0.009495504351     0.005591646467    -0.005543477613
       3       -0.001406524920     0.001025354380     0.000552832175
       4        0.006142696469    -0.001849072222     0.002451636193
       5       -0.013503035661     0.022878397521     0.003942033888
       6        0.000065264008    -0.010246882722    -0.004303251131
       7       -0.038364727983    -0.009961693681    -0.010902613227
       8        0.003821359952    -0.008133641351     0.000499176358
       9       -0.003341725262     0.001723685913     0.007615847802
      10        0.024202208466    -0.036825139682     0.038476306589
      11        0.073524097415     0.179332810047     0.218127658318
      12       -0.067004869956     0.021810568648     0.026725906713
      13        0.033836059529    -0.028113114425     0.005135594707
      14       -0.001657440667     0.001515844788     0.000437287631
      15       -0.000300394404    -0.000601019280    -0.000214054617
      16       -0.001845171276     0.001209798068    -0.000455508456
      17        0.000812075144     0.002009688134     0.001855468883
      18        0.006809750260     0.000826413997    -0.002538184499
      19        0.007583951848    -0.003096684070    -0.000822208309
      20        0.000547413768    -0.000609040406    -0.001782427572
      21        0.000642063414     0.001194778640    -0.002653774034
      22       -0.001641293119     0.003244536817    -0.002325538767
      23       -0.001060997307     0.000918205179    -0.000220802988
      24        0.001410954502     0.005696674382     0.011765100180
      25        0.000664501872     0.001455330285    -0.002711557013
      26        0.000362515980     0.001638690122    -0.000386117401
      27       -0.018417866495    -0.157741949404    -0.270920475436
      28       -0.020196068550     0.006260186914    -0.008441457885


*** tstop() called on skystd14.palmetto.clemson.edu at Fri Nov 12 01:44:30 2021
Module time:
	user time   =      88.83 seconds =       1.48 minutes
	system time =       4.10 seconds =       0.07 minutes
	total time  =         93 seconds =       1.55 minutes
Total time:
	user time   =     109.72 seconds =       1.83 minutes
	system time =       5.00 seconds =       0.08 minutes
	total time  =        115 seconds =       1.92 minutes

			-----------------------------------------
			 OPTKING 2.0: for geometry optimizations 
			  - R.A. King,  Bethel University        
			-----------------------------------------

	Internal coordinates to be generated automatically.
	Detected frag 1 with atoms:  1 2 3 4 5 6 7 8 9 10 11 12 13 14 15 16 17 18 19 20
	 21 22 23 24 25 26 27 28
	---Fragment 1 Bond Connectivity---
	 1 : 2 6 14
	 2 : 1 3 7
	 3 : 2 4 17
	 4 : 3 5 16
	 5 : 4 6 13
	 6 : 1 5 15
	 7 : 2 8 11 12
	 8 : 7 9 25 26
	 9 : 8 10 20 21
	 10 : 9 11 22 23
	 11 : 7 10 12 24 27
	 12 : 7 11 18 19
	 13 : 5 28
	 14 : 1
	 15 : 6
	 16 : 4
	 17 : 3
	 18 : 12
	 19 : 12
	 20 : 9
	 21 : 9
	 22 : 10
	 23 : 10
	 24 : 11
	 25 : 8
	 26 : 8
	 27 : 11
	 28 : 13

	---Fragment 1 Geometry and Gradient---
	 C           2.6553515008       -1.7218041515        0.5965993471
	 C           0.4742900781       -0.2888380587        0.0763218400
	 C          -1.3705890670       -1.3162254613       -1.5510536074
	 C          -1.0463876529       -3.7170128996       -2.6271430318
	 C           1.1349062062       -5.1328996477       -2.0872709544
	 C           2.9844605337       -4.1294342881       -0.4712395329
	 C           0.1277180861        2.3029062046        1.1362597752
	 C           0.2967087346        4.5857463867       -0.6618732147
	 C          -2.2962676301        5.8943307060       -0.4389781285
	 C          -3.0946126674        5.4857001081        2.3346825099
	 C          -1.9821176693        2.9100884368        3.0219985785
	 C           0.7522574528        2.8393616571        3.8760206166
	 O           1.4532929330       -7.4996568979       -3.1350428328
	 H           4.1045749075       -0.9336277305        1.8450582503
	 H           4.6884416988       -5.2209854516       -0.0443466217
	 H          -2.5003656105       -4.4914415631       -3.8775181172
	 H          -3.0821990565       -0.2226296142       -1.9521101831
	 H           1.3294176060        1.2402187179        5.0512394043
	 H           1.6645340782        4.6420961301        4.3251178098
	 H          -3.6531287827        4.9060549650       -1.6796003374
	 H          -2.2640156743        7.8997269676       -1.0079255320
	 H          -5.1629538165        5.5183621344        2.5681279371
	 H          -2.3099057835        6.9841508804        3.5585352892
	 H          -3.2220690254        1.3901344709        3.6753770555
	 H           0.7115489726        3.9723601837       -2.6071308321
	 H           1.8319071211        5.8718580829       -0.0703908272
	 H          -1.9653803650        3.8357518821        4.4017877782
	 H           3.0090534295       -8.1915309859       -2.5841555419
	            -0.0011803014       -0.0011543731       -0.0033634005
	             0.0094955044        0.0055916465       -0.0055434776
	            -0.0014065249        0.0010253544        0.0005528322
	             0.0061426965       -0.0018490722        0.0024516362
	            -0.0135030357        0.0228783975        0.0039420339
	             0.0000652640       -0.0102468827       -0.0043032511
	            -0.0383647280       -0.0099616937       -0.0109026132
	             0.0038213600       -0.0081336414        0.0004991764
	            -0.0033417253        0.0017236859        0.0076158478
	             0.0242022085       -0.0368251397        0.0384763066
	             0.0735240974        0.1793328100        0.2181276583
	            -0.0670048700        0.0218105686        0.0267259067
	             0.0338360595       -0.0281131144        0.0051355947
	            -0.0016574407        0.0015158448        0.0004372876
	            -0.0003003944       -0.0006010193       -0.0002140546
	            -0.0018451713        0.0012097981       -0.0004555085
	             0.0008120751        0.0020096881        0.0018554689
	             0.0068097503        0.0008264140       -0.0025381845
	             0.0075839518       -0.0030966841       -0.0008222083
	             0.0005474138       -0.0006090404       -0.0017824276
	             0.0006420634        0.0011947786       -0.0026537740
	            -0.0016412931        0.0032445368       -0.0023255388
	            -0.0010609973        0.0009182052       -0.0002208030
	             0.0014109545        0.0056966744        0.0117651002
	             0.0006645019        0.0014553303       -0.0027115570
	             0.0003625160        0.0016386901       -0.0003861174
	            -0.0184178665       -0.1577419494       -0.2709204754
	            -0.0201960686        0.0062601869       -0.0084414579

	Previous optimization step data not found.  Starting new optimization.

	---Fragment 1 Intrafragment Coordinates---
	 - Coordinate -           - BOHR/RAD -       - ANG/DEG -
	 R(1,2)           =         2.661035	       1.408159
	 R(1,6)           =         2.654294	       1.404592
	 R(1,14)          =         2.068845	       1.094786
	 R(2,3)           =         2.665981	       1.410776
	 R(2,7)           =         2.821475	       1.493060
	 R(3,4)           =         2.650822	       1.402754
	 R(3,17)          =         2.070364	       1.095589
	 R(4,5)           =         2.655982	       1.405485
	 R(4,16)          =         2.068146	       1.094416
	 R(5,6)           =         2.653178	       1.404001
	 R(5,13)          =         2.607822	       1.380000
	 R(6,15)          =         2.068157	       1.094422
	 R(7,8)           =         2.910876	       1.540369
	 R(7,11)          =         2.894147	       1.531517
	 R(7,12)          =         2.860791	       1.513865
	 R(8,9)           =         2.913006	       1.541496
	 R(8,25)          =         2.081433	       1.101447
	 R(8,26)          =         2.088245	       1.105052
	 R(9,10)          =         2.915052	       1.542579
	 R(9,20)          =         2.087320	       1.104562
	 R(9,21)          =         2.084791	       1.103224
	 R(10,11)         =         2.888568	       1.528564
	 R(10,22)         =         2.081730	       1.101604
	 R(10,23)         =         2.087806	       1.104820
	 R(11,12)         =         2.865513	       1.516364
	 R(11,24)         =         2.067521	       1.094085
	 R(11,27)         =         1.661611	       0.879287
	 R(12,18)         =         2.066763	       1.093684
	 R(12,19)         =         2.069732	       1.095255
	 R(13,28)         =         1.789569	       0.946999
	 B(1,2,3)         =         2.070330	     118.621169
	 B(1,2,7)         =         2.119852	     121.458592
	 B(1,6,5)         =         2.096327	     120.110665
	 B(1,6,15)        =         2.091924	     119.858443
	 B(2,1,6)         =         2.107639	     120.758844
	 B(2,1,14)        =         2.079426	     119.142324
	 B(2,3,4)         =         2.108523	     120.809443
	 B(2,3,17)        =         2.079202	     119.129510
	 B(2,7,8)         =         2.072817	     118.763673
	 B(2,7,11)        =         2.125903	     121.805293
	 B(2,7,12)        =         2.100423	     120.345347
	 B(3,2,7)         =         2.092441	     119.888010
	 B(3,4,5)         =         2.095249	     120.048912
	 B(3,4,16)        =         2.092759	     119.906261
	 B(4,3,17)        =         2.095393	     120.057181
	 B(4,5,6)         =         2.088291	     119.650255
	 B(4,5,13)        =         2.097186	     120.159916
	 B(5,4,16)        =         2.095155	     120.043523
	 B(5,6,15)        =         2.094932	     120.030755
	 B(5,13,28)       =         1.910634	     109.471239
	 B(6,1,14)        =         2.096115	     120.098558
	 B(6,5,13)        =         2.097704	     120.189605
	 B(7,8,9)         =         1.826944	     104.676183
	 B(7,8,25)        =         1.936678	     110.963500
	 B(7,8,26)        =         1.929130	     110.530985
	 B(7,11,10)       =         1.888931	     108.227760
	 B(7,11,12)       =         1.039529	      59.560608
	 B(7,11,24)       =         2.081600	     119.266881
	 B(7,11,27)       =         2.279158	     130.586143
	 B(7,12,11)       =         1.059719	      60.717455
	 B(7,12,18)       =         2.049291	     117.415738
	 B(7,12,19)       =         2.057096	     117.862930
	 B(8,7,11)        =         1.854886	     106.277142
	 B(8,7,12)        =         2.017350	     115.585635
	 B(8,9,10)        =         1.827213	     104.691603
	 B(8,9,20)        =         1.897015	     108.690958
	 B(8,9,21)        =         1.979545	     113.419566
	 B(9,8,25)        =         1.962002	     112.414426
	 B(9,8,26)        =         1.934839	     110.858130
	 B(9,10,11)       =         1.819262	     104.236028
	 B(9,10,22)       =         1.956930	     112.123858
	 B(9,10,23)       =         1.932870	     110.745317
	 B(10,9,20)       =         1.897722	     108.731471
	 B(10,9,21)       =         1.980944	     113.499729
	 B(10,11,12)      =         2.049282	     117.415189
	 B(10,11,24)      =         2.094078	     119.981854
	 B(10,11,27)      =         1.271063	      72.826549
	 B(11,7,12)       =         1.042344	      59.721937
	 B(11,10,22)      =         1.949770	     111.713593
	 B(11,10,23)      =         1.934482	     110.837635
	 B(11,12,18)      =         2.043220	     117.067911
	 B(11,12,19)      =         2.053042	     117.630617
	 B(12,11,24)      =         2.048738	     117.384031
	 B(12,11,27)      =         1.324981	      75.915798
	 B(18,12,19)      =         2.012475	     115.306334
	 B(20,9,21)       =         1.878938	     107.655208
	 B(22,10,23)      =         1.871758	     107.243828
	 B(24,11,27)      =         1.724569	      98.810544
	 B(25,8,26)       =         1.875162	     107.438867
	 D(1,2,3,4)       =         0.002225	       0.127510
	 D(1,2,3,17)      =         3.131340	     179.412579
	 D(1,2,7,8)       =         1.903726	     109.075488
	 D(1,2,7,11)      =        -2.009677	    -115.146008
	 D(1,2,7,12)      =        -0.769279	     -44.076454
	 D(1,6,5,4)       =        -0.001268	      -0.072649
	 D(1,6,5,13)      =        -3.139863	    -179.900897
	 D(2,1,6,5)       =         0.004887	       0.280032
	 D(2,1,6,15)      =        -3.139052	    -179.854413
	 D(2,3,4,5)       =         0.001304	       0.074696
	 D(2,3,4,16)      =         3.135652	     179.659639
	 D(2,7,8,9)       =         2.100956	     120.375900
	 D(2,7,8,25)      =        -0.019558	      -1.120569
	 D(2,7,8,26)      =        -2.098069	    -120.210517
	 D(2,7,11,10)     =        -2.431542	    -139.317105
	 D(2,7,11,12)     =         1.903190	     109.044767
	 D(2,7,11,24)     =         0.046269	       2.651024
	 D(2,7,11,27)     =         2.408409	     137.991658
	 D(2,7,12,11)     =        -1.944838	    -111.431010
	 D(2,7,12,18)     =        -0.072654	      -4.162745
	 D(2,7,12,19)     =         2.457624	     140.811505
	 D(3,2,1,6)       =        -0.005316	      -0.304566
	 D(3,2,1,14)      =         3.132955	     179.505079
	 D(3,2,7,8)       =        -1.201325	     -68.830861
	 D(3,2,7,11)      =         1.168457	      66.947643
	 D(3,2,7,12)      =         2.408855	     138.017197
	 D(3,4,5,6)       =        -0.001796	      -0.102897
	 D(3,4,5,13)      =         3.136800	     179.725402
	 D(4,3,2,7)       =         3.108309	     178.093007
	 D(4,5,6,15)      =        -3.140510	    -179.937972
	 D(4,5,13,28)     =         3.141593	     180.000000
	 D(5,4,3,17)      =        -3.127696	    -179.203768
	 D(5,6,1,14)      =        -3.133351	    -179.527798
	 D(6,1,2,7)       =        -3.110817	    -178.236697
	 D(6,5,4,16)      =        -3.136134	    -179.687266
	 D(6,5,13,28)     =        -0.003014	      -0.172687
	 D(7,2,1,14)      =         0.027453	       1.572947
	 D(7,2,3,17)      =        -0.045761	      -2.621924
	 D(7,8,9,10)      =         0.589408	      33.770574
	 D(7,8,9,20)      =        -1.436064	     -82.280420
	 D(7,8,9,21)      =         2.757968	     158.019943
	 D(7,11,10,9)     =         0.342659	      19.632915
	 D(7,11,10,22)    =         2.459427	     140.914795
	 D(7,11,10,23)    =        -1.737450	     -99.548565
	 D(7,11,12,18)    =        -1.882066	    -107.834461
	 D(7,11,12,19)    =         1.887308	     108.134810
	 D(7,12,11,10)    =        -1.674894	     -95.964379
	 D(7,12,11,24)    =         1.911561	     109.524366
	 D(7,12,11,27)    =        -2.752927	    -157.731083
	 D(8,7,11,10)     =         0.019570	       1.121250
	 D(8,7,11,12)     =        -1.928883	    -110.516878
	 D(8,7,11,24)     =         2.497381	     143.089378
	 D(8,7,11,27)     =        -1.423665	     -81.569987
	 D(8,7,12,11)     =         1.651177	      94.605462
	 D(8,7,12,18)     =        -2.759824	    -158.126272
	 D(8,7,12,19)     =        -0.229546	     -13.152022
	 D(8,9,10,11)     =        -0.573603	     -32.865016
	 D(8,9,10,22)     =        -2.685603	    -153.873725
	 D(8,9,10,23)     =         1.507601	      86.379149
	 D(9,8,7,11)      =        -0.375128	     -21.493240
	 D(9,8,7,12)      =        -1.487485	     -85.226614
	 D(9,10,11,12)    =         1.468896	      84.161553
	 D(9,10,11,24)    =        -2.129570	    -122.015371
	 D(9,10,11,27)    =         2.576033	     147.595807
	 D(10,9,8,25)     =         2.693169	     154.307237
	 D(10,9,8,26)     =        -1.490909	     -85.422819
	 D(10,11,7,12)    =         1.948453	     111.638128
	 D(10,11,12,18)   =         2.726225	     156.201160
	 D(10,11,12,19)   =         0.212414	      12.170431
	 D(11,7,8,25)     =        -2.495641	    -142.989709
	 D(11,7,8,26)     =         1.709032	      97.920343
	 D(11,7,12,18)    =         1.872184	     107.268266
	 D(11,7,12,19)    =        -1.880723	    -107.757485
	 D(11,10,9,20)    =         1.451379	      83.157889
	 D(11,10,9,21)    =        -2.741271	    -157.063241
	 D(12,7,8,25)     =         2.675187	     153.276917
	 D(12,7,8,26)     =         0.596675	      34.186969
	 D(12,7,11,24)    =        -1.856921	    -106.393744
	 D(12,7,11,27)    =         0.505219	      28.946891
	 D(12,11,10,22)   =        -2.697521	    -154.556567
	 D(12,11,10,23)   =        -0.611213	     -35.019926
	 D(13,5,4,16)     =         0.002461	       0.141033
	 D(13,5,6,15)     =         0.004080	       0.233781
	 D(14,1,6,15)     =         0.005895	       0.337758
	 D(16,4,3,17)     =         0.006653	       0.381175
	 D(18,12,11,24)   =         0.029494	       1.689905
	 D(18,12,11,27)   =         1.648192	      94.434456
	 D(19,12,11,24)   =        -2.484316	    -142.340824
	 D(19,12,11,27)   =        -0.865618	     -49.596273
	 D(20,9,8,25)     =         0.667697	      38.256244
	 D(20,9,8,26)     =         2.766804	     158.526188
	 D(20,9,10,22)    =        -0.660621	     -37.850820
	 D(20,9,10,23)    =        -2.750603	    -157.597945
	 D(21,9,8,25)     =        -1.421455	     -81.443393
	 D(21,9,8,26)     =         0.677651	      38.826551
	 D(21,9,10,22)    =         1.429914	      81.928049
	 D(21,9,10,23)    =        -0.660067	     -37.819076
	 D(22,10,11,24)   =        -0.012802	      -0.733490
	 D(22,10,11,27)   =        -1.590384	     -91.122313
	 D(23,10,11,24)   =         2.073506	     118.803150
	 D(23,10,11,27)   =         0.495924	      28.414328

	Current energy   :      -539.4798539398

	Generating empirical Hessian (Schlegel '84) for each fragment.
	Taking PRFO optimization step.
	Maximizing along 1 lowest eigenvalue of Hessian.

 RFO min eigenvalues
 -0.130186 -0.000000 -0.000000 -0.000000 -0.000000 -0.000000 -0.000000 -0.000000
 -0.000000 -0.000000 -0.000000 -0.000000 -0.000000 -0.000000 -0.000000 -0.000000
 -0.000000 -0.000000 -0.000000 -0.000000 -0.000000 -0.000000 -0.000000 -0.000000
 -0.000000 -0.000000 -0.000000 -0.000000 -0.000000 -0.000000 -0.000000 -0.000000
 -0.000000 -0.000000 -0.000000 -0.000000 -0.000000 -0.000000 -0.000000 -0.000000
 -0.000000 -0.000000 -0.000000 -0.000000 -0.000000 -0.000000 -0.000000 -0.000000
 -0.000000 -0.000000 -0.000000 -0.000000 -0.000000 -0.000000 -0.000000 -0.000000
 -0.000000 -0.000000 -0.000000  0.000000  0.000000  0.000000  0.000000  0.000000
  0.000000  0.000000  0.000000  0.000000  0.000000  0.000000  0.000000  0.000000
  0.000000  0.000000  0.000000  0.000000  0.000000  0.000000  0.000000  0.000000
  0.000000  0.000000  0.000000  0.000000  0.000000  0.000000  0.000000  0.000000
  0.000000  0.000000  0.000000  0.000000  0.000000  0.000000  0.000000  0.000000
  0.000000  0.000000  0.000000  0.000000  0.000000  0.000000  0.000000  0.000000
  0.000000  0.000000  0.000000  0.000000  0.000000  0.000000  0.000000  0.000000
  0.003290  0.005865  0.006305  0.007591  0.012457  0.014106  0.015743  0.016227
  0.017011  0.017273  0.017347  0.017506  0.017564  0.017607  0.017656  0.018483
  0.020755  0.023956  0.029137  0.031207  0.040612  0.045145  0.049873  0.052583
  0.057725  0.058530  0.065247  0.069854  0.070033  0.072689  0.080789  0.082046
  0.082905  0.088478  0.102750  0.107636  0.112691  0.159991  0.159997  0.159999
  0.160000  0.160166  0.169948  0.202457  0.203838  0.220020  0.229706  0.240031
  0.249829  0.250810  0.264366  0.268864  0.276545  0.293655  0.302980  0.331227
  0.331301  0.331547  0.331828  0.333288  0.335058  0.335237  0.341746  0.342124
  0.342654  0.343066  0.343075  0.343451  0.343903  0.407319  0.409179  0.442349
  0.445146  0.448750  0.450616  0.491657  0.584135  0.884356

 RFO max eigenvalues
 -0.000000  0.000000
	|RFO target step|  :        0.4447389925
	RFO gradient       :       -0.2927242162
	RFO hessian        :        0.5280398719
	Projected Delta(E) :       -0.0650902560

	Back-transformation to cartesian coordinates...
	Could not converge backtransformation.
	Using first guess instead.

	--- Internal Coordinate Step in ANG or DEG, aJ/ANG or AJ/DEG ---
	 ---------------------------------------------------------------------------
	   Coordinate                Previous        Force       Change         New 
	   ----------                --------       ------       ------       ------
	    1 R(1,2)          =      1.408159    -0.006353    -0.000708     1.407451
	    2 R(1,6)          =      1.404592    -0.042187    -0.004609     1.399983
	    3 R(1,14)         =      1.094786     0.002634     0.000397     1.095183
	    4 R(2,3)          =      1.410776     0.010786     0.001159     1.411935
	    5 R(2,7)          =      1.493060    -0.046131    -0.006375     1.486685
	    6 R(3,4)          =      1.402754    -0.046470    -0.005182     1.397573
	    7 R(3,17)         =      1.095589    -0.000253    -0.000015     1.095575
	    8 R(4,5)          =      1.405485    -0.004395    -0.000467     1.405018
	    9 R(4,16)         =      1.094416    -0.009224    -0.001230     1.093186
	   10 R(5,6)          =      1.404001     0.047014     0.005300     1.409301
	   11 R(5,13)         =      1.380000    -0.188060    -0.018515     1.361485
	   12 R(6,15)         =      1.094422    -0.000210    -0.000023     1.094398
	   13 R(7,8)          =      1.540369     0.047669     0.006178     1.546547
	   14 R(7,11)         =      1.531517     0.128820     0.024474     1.555991
	   15 R(7,12)         =      1.513865    -0.047404    -0.017543     1.496322
	   16 R(8,9)          =      1.541496     0.046346     0.002916     1.544412
	   17 R(8,25)         =      1.101447    -0.018436    -0.002514     1.098933
	   18 R(8,26)         =      1.105052    -0.009609    -0.001318     1.103734
	   19 R(9,10)         =      1.542579    -0.010811    -0.001820     1.540759
	   20 R(9,20)         =      1.104562    -0.008172    -0.000951     1.103611
	   21 R(9,21)         =      1.103224    -0.015517    -0.002124     1.101100
	   22 R(10,11)        =      1.528564     0.326508     0.052812     1.581377
	   23 R(10,22)        =      1.101604    -0.011706    -0.001483     1.100121
	   24 R(10,23)        =      1.104820    -0.001078    -0.000006     1.104813
	   25 R(11,12)        =      1.516364     0.268585     0.049986     1.566350
	   26 R(11,24)        =      1.094085     0.010843     0.001779     1.095864
	   27 R(11,27)        =      0.879287     2.578983     0.184129     1.063416
	   28 R(12,18)        =      1.093684     0.001492     0.000438     1.094122
	   29 R(12,19)        =      1.095255    -0.003849    -0.000443     1.094812
	   30 R(13,28)        =      0.946999     0.186000     0.016897     0.963896
	   31 B(1,2,3)        =    118.621169     0.000318     0.623761   119.244930
	   32 B(1,2,7)        =    121.458592    -0.000344    -0.682886   120.775706
	   33 B(1,6,5)        =    120.110665     0.000013     0.066735   120.177401
	   34 B(1,6,15)       =    119.858443    -0.000059    -0.170442   119.688001
	   35 B(2,1,6)        =    120.758844    -0.000264    -0.547722   120.211122
	   36 B(2,1,14)       =    119.142324     0.000306     0.725222   119.867546
	   37 B(2,3,4)        =    120.809443    -0.000054    -0.128105   120.681337
	   38 B(2,3,17)       =    119.129510     0.000251     0.644895   119.774405
	   39 B(2,7,8)        =    118.763673     0.000458     0.654109   119.417783
	   40 B(2,7,11)       =    121.805293    -0.000556    -1.520052   120.285241
	   41 B(2,7,12)       =    120.345347    -0.000625    -1.472527   118.872820
	   42 B(3,2,7)        =    119.888010     0.000025     0.052196   119.940206
	   43 B(3,4,5)        =    120.048912    -0.000110    -0.233365   119.815548
	   44 B(3,4,16)       =    119.906261     0.000209     0.516709   120.422970
	   45 B(4,3,17)       =    120.057181    -0.000197    -0.516102   119.541079
	   46 B(4,5,6)        =    119.650255     0.000097     0.219158   119.869413
	   47 B(4,5,13)       =    120.159916    -0.001077    -2.176958   117.982958
	   48 B(5,4,16)       =    120.043523    -0.000099    -0.282782   119.760741
	   49 B(5,6,15)       =    120.030755     0.000046     0.103706   120.134462
	   50 B(5,13,28)      =    109.471239    -0.000400    -1.085450   108.385789
	   51 B(6,1,14)       =    120.098558    -0.000043    -0.178853   119.919705
	   52 B(6,5,13)       =    120.189605     0.000981     1.957925   122.147530
	   53 B(7,8,9)        =    104.676183     0.000594     1.117989   105.794172
	   54 B(7,8,25)       =    110.963500    -0.000332    -0.828295   110.135205
	   55 B(7,8,26)       =    110.530985    -0.000160    -0.300305   110.230681
	   56 B(7,11,10)      =    108.227760    -0.000302    -1.119115   107.108645
	   57 B(7,11,12)      =     59.560608    -0.000901    -2.291409    57.269199
	   58 B(7,11,24)      =    119.266881     0.000171    -0.026184   119.240697
	   59 B(7,11,27)      =    130.586143    -0.000638    -1.647704   128.938439
	   60 B(7,12,11)      =     60.717455     0.000062     0.299816    61.017271
	   61 B(7,12,18)      =    117.415738     0.000112     0.334895   117.750632
	   62 B(7,12,19)      =    117.862930    -0.000153    -0.240687   117.622243
	   63 B(8,7,11)       =    106.277142    -0.000250    -0.254515   106.022626
	   64 B(8,7,12)       =    115.585635     0.000169     0.908993   116.494628
	   65 B(8,9,10)       =    104.691603     0.000246     0.357245   105.048848
	   66 B(8,9,20)       =    108.690958    -0.000012     0.187678   108.878636
	   67 B(8,9,21)       =    113.419566     0.000002     0.113892   113.533458
	   68 B(9,8,25)       =    112.414426    -0.000349    -0.901021   111.513405
	   69 B(9,8,26)       =    110.858130     0.000106     0.683285   111.541415
	   70 B(9,10,11)      =    104.236028    -0.000294    -0.193068   104.042960
	   71 B(9,10,22)      =    112.123858     0.000455     1.047770   113.171629
	   72 B(9,10,23)      =    110.745317    -0.000118    -0.367532   110.377785
	   73 B(10,9,20)      =    108.731471    -0.000062    -0.251935   108.479536
	   74 B(10,9,21)      =    113.499729    -0.000242    -0.544218   112.955511
	   75 B(10,11,12)     =    117.415189     0.000175     0.943756   118.358945
	   76 B(10,11,24)     =    119.981854     0.000073     0.186673   120.168527
	   77 B(10,11,27)     =     72.826549     0.000728     2.903874    75.730423
	   78 B(11,7,12)      =     59.721937     0.000838     1.991593    61.713530
	   79 B(11,10,22)     =    111.713593    -0.000097    -0.573950   111.139642
	   80 B(11,10,23)     =    110.837635     0.000058    -0.118105   110.719530
	   81 B(11,12,18)     =    117.067911    -0.000175    -0.837769   116.230142
	   82 B(11,12,19)     =    117.630617    -0.000243    -0.886927   116.743690
	   83 B(12,11,24)     =    117.384031     0.000215     0.471194   117.855226
	   84 B(12,11,27)     =     75.915798     0.000148     0.286377    76.202176
	   85 B(18,12,19)     =    115.306334     0.000254     0.845307   116.151641
	   86 B(20,9,21)      =    107.655208     0.000070     0.140658   107.795866
	   87 B(22,10,23)     =    107.243828    -0.000005     0.180491   107.424320
	   88 B(24,11,27)     =     98.810544     0.000114     0.633770    99.444314
	   89 B(25,8,26)      =    107.438867     0.000134     0.208858   107.647724
	   90 D(1,2,3,4)      =      0.127510     0.000001     0.016591     0.144101
	   91 D(1,2,3,17)     =    179.412579     0.000004     0.079971   179.492551
	   92 D(1,2,7,8)      =    109.075488     0.000049     0.708979   109.784466
	   93 D(1,2,7,11)     =   -115.146008    -0.000086    -0.941481  -116.087489
	   94 D(1,2,7,12)     =    -44.076454     0.000036     0.252133   -43.824321
	   95 D(1,6,5,4)      =     -0.072649     0.000003     0.076252     0.003603
	   96 D(1,6,5,13)     =   -179.900897     0.000001     0.021218  -179.879679
	   97 D(2,1,6,5)      =      0.280032    -0.000007    -0.160032     0.120000
	   98 D(2,1,6,15)     =   -179.854413    -0.000007    -0.159966  -180.014378
	   99 D(2,3,4,5)      =      0.074696    -0.000004    -0.096810    -0.022114
	  100 D(2,3,4,16)     =    179.659639     0.000000     0.004353   179.663992
	  101 D(2,7,8,9)      =    120.375900    -0.000126    -2.209670   118.166230
	  102 D(2,7,8,25)     =     -1.120569    -0.000071    -1.352089    -2.472658
	  103 D(2,7,8,26)     =   -120.210517    -0.000037    -0.898593  -121.109110
	  104 D(2,7,11,10)    =   -139.317105     0.000017     1.162405  -138.154699
	  105 D(2,7,11,12)    =    109.044767    -0.000039    -0.337687   108.707080
	  106 D(2,7,11,24)    =      2.651024     0.000002    -0.008608     2.642416
	  107 D(2,7,11,27)    =    137.991658    -0.000116    -1.393721   136.597937
	  108 D(2,7,12,11)    =   -111.431010     0.000022     0.499677  -110.931334
	  109 D(2,7,12,18)    =     -4.162745    -0.000032    -0.539315    -4.702060
	  110 D(2,7,12,19)    =    140.811505     0.000069     1.354641   142.166146
	  111 D(3,2,1,6)      =     -0.304566     0.000005     0.112107    -0.192458
	  112 D(3,2,1,14)     =    179.505079    -0.000007    -0.161868   179.343210
	  113 D(3,2,7,8)      =    -68.830861     0.000057     0.908451   -67.922411
	  114 D(3,2,7,11)     =     66.947643    -0.000078    -0.742009    66.205634
	  115 D(3,2,7,12)     =    138.017197     0.000044     0.451605   138.468802
	  116 D(3,4,5,6)      =     -0.102897     0.000002     0.050522    -0.052375
	  117 D(3,4,5,13)     =    179.725402     0.000005     0.110317   179.835718
	  118 D(4,3,2,7)      =    178.093007    -0.000010    -0.206893   177.886114
	  119 D(4,5,6,15)     =   -179.937972     0.000003     0.076556  -179.861415
	  120 D(4,5,13,28)    =    180.000000    -0.000003    -0.060502   179.939498
	  121 D(5,4,3,17)     =   -179.203768    -0.000008    -0.168304  -179.372072
	  122 D(5,6,1,14)     =   -179.527798     0.000005     0.112372  -179.415426
	  123 D(6,1,2,7)      =   -178.236697     0.000014     0.321604  -177.915093
	  124 D(6,5,4,16)     =   -179.687266    -0.000003    -0.053310  -179.740577
	  125 D(6,5,13,28)    =     -0.172687    -0.000000    -0.002428    -0.175115
	  126 D(7,2,1,14)     =      1.572947     0.000002     0.047629     1.620576
	  127 D(7,2,3,17)     =     -2.621924    -0.000007    -0.143513    -2.765436
	  128 D(7,8,9,10)     =     33.770574     0.000055     0.629308    34.399882
	  129 D(7,8,9,20)     =    -82.280420     0.000044     0.651493   -81.628926
	  130 D(7,8,9,21)     =    158.019943     0.000026     0.269702   158.289645
	  131 D(7,11,10,9)    =     19.632915     0.000019    -0.145865    19.487049
	  132 D(7,11,10,22)   =    140.914795     0.000091     0.685054   141.599849
	  133 D(7,11,10,23)   =    -99.548565     0.000083     0.456788   -99.091777
	  134 D(7,11,12,18)   =   -107.834461    -0.000053    -0.856649  -108.691110
	  135 D(7,11,12,19)   =    108.134810    -0.000014     0.188853   108.323663
	  136 D(7,12,11,10)   =    -95.964379     0.000203     3.071607   -92.892772
	  137 D(7,12,11,24)   =    109.524366    -0.000045    -1.036399   108.487967
	  138 D(7,12,11,27)   =   -157.731083    -0.000009    -0.265127  -157.996210
	  139 D(8,7,11,10)    =      1.121250    -0.000036     0.144313     1.265563
	  140 D(8,7,11,12)    =   -110.516878    -0.000092    -1.355779  -111.872658
	  141 D(8,7,11,24)    =    143.089378    -0.000051    -1.026700   142.062678
	  142 D(8,7,11,27)    =    -81.569987    -0.000169    -2.411813   -83.981801
	  143 D(8,7,12,11)    =     94.605462    -0.000009     0.097171    94.702633
	  144 D(8,7,12,18)    =   -158.126272    -0.000063    -0.941821  -159.068093
	  145 D(8,7,12,19)    =    -13.152022     0.000038     0.952135   -12.199887
	  146 D(8,9,10,11)    =    -32.865016     0.000007     0.016307   -32.848709
	  147 D(8,9,10,22)    =   -153.873725     0.000020     0.265889  -153.607837
	  148 D(8,9,10,23)    =     86.379149    -0.000030    -0.415005    85.964145
	  149 D(9,8,7,11)     =    -21.493240     0.000032    -0.184012   -21.677251
	  150 D(9,8,7,12)     =    -85.226614    -0.000163    -2.387422   -87.614036
	  151 D(9,10,11,12)   =     84.161553    -0.000239    -3.146847    81.014707
	  152 D(9,10,11,24)   =   -122.015371     0.000024     1.140420  -120.874951
	  153 D(9,10,11,27)   =    147.595807    -0.000098    -1.222102   146.373705
	  154 D(10,9,8,25)    =    154.307237     0.000005    -0.169577   154.137660
	  155 D(10,9,8,26)    =    -85.422819     0.000007    -0.045910   -85.468729
	  156 D(10,11,7,12)   =    111.638128     0.000057     1.500092   113.138220
	  157 D(10,11,12,18)  =    156.201160     0.000150     2.214958   158.416118
	  158 D(10,11,12,19)  =     12.170431     0.000189     3.260459    15.430890
	  159 D(11,7,8,25)    =   -142.989709     0.000086     0.673569  -142.316139
	  160 D(11,7,8,26)    =     97.920343     0.000120     1.127066    99.047409
	  161 D(11,7,12,18)   =    107.268266    -0.000054    -1.038992   106.229274
	  162 D(11,7,12,19)   =   -107.757485     0.000047     0.854964  -106.902521
	  163 D(11,10,9,20)   =     83.157889     0.000026     0.296825    83.454714
	  164 D(11,10,9,21)   =   -157.063241     0.000001    -0.042250  -157.105492
	  165 D(12,7,8,25)    =    153.276917    -0.000109    -1.529841   151.747076
	  166 D(12,7,8,26)    =     34.186969    -0.000075    -1.076344    33.110625
	  167 D(12,7,11,24)   =   -106.393744     0.000042     0.329080  -106.064664
	  168 D(12,7,11,27)   =     28.946891    -0.000077    -1.056034    27.890857
	  169 D(12,11,10,22)  =   -154.556567    -0.000168    -2.315927  -156.872494
	  170 D(12,11,10,23)  =    -35.019926    -0.000175    -2.544194   -37.564120
	  171 D(13,5,4,16)    =      0.141033     0.000000     0.006484     0.147517
	  172 D(13,5,6,15)    =      0.233781     0.000001     0.021522     0.255303
	  173 D(14,1,6,15)    =      0.337758     0.000005     0.112438     0.450196
	  174 D(16,4,3,17)    =      0.381175    -0.000003    -0.067141     0.314034
	  175 D(18,12,11,24)  =      1.689905    -0.000098    -1.893048    -0.203142
	  176 D(18,12,11,27)  =     94.434456    -0.000062    -1.121776    93.312680
	  177 D(19,12,11,24)  =   -142.340824    -0.000059    -0.847546  -143.188370
	  178 D(19,12,11,27)  =    -49.596273    -0.000023    -0.076275   -49.672548
	  179 D(20,9,8,25)    =     38.256244    -0.000006    -0.147391    38.108853
	  180 D(20,9,8,26)    =    158.526188    -0.000004    -0.023724   158.502463
	  181 D(20,9,10,22)   =    -37.850820     0.000039     0.546407   -37.304413
	  182 D(20,9,10,23)   =   -157.597945    -0.000011    -0.134487  -157.732432
	  183 D(21,9,8,25)    =    -81.443393    -0.000024    -0.529183   -81.972576
	  184 D(21,9,8,26)    =     38.826551    -0.000023    -0.405516    38.421035
	  185 D(21,9,10,22)   =     81.928049     0.000014     0.207331    82.135381
	  186 D(21,9,10,23)   =    -37.819076    -0.000036    -0.473562   -38.292638
	  187 D(22,10,11,24)  =     -0.733490     0.000096     1.971340     1.237849
	  188 D(22,10,11,27)  =    -91.122313    -0.000026    -0.391182   -91.513495
	  189 D(23,10,11,24)  =    118.803150     0.000088     1.743073   120.546223
	  190 D(23,10,11,27)  =     28.414328    -0.000033    -0.619449    27.794879
	 ---------------------------------------------------------------------------
	Successfully symmetrized geometry.

  ==> Convergence Check <==

  Measures of convergence in internal coordinates in au.
  Criteria marked as inactive (o), active & met (*), and active & unmet ( ).
  --------------------------------------------------------------------------------------------- ~
   Step     Total Energy     Delta E     MAX Force     RMS Force      MAX Disp      RMS Disp    ~
  --------------------------------------------------------------------------------------------- ~
    Convergence Criteria    1.00e-06 *    3.00e-04 *             o    1.20e-03 *             o  ~
  --------------------------------------------------------------------------------------------- ~
      1    -539.47985394   -5.39e+02      3.13e-01      2.35e-02 o    3.48e-01      3.20e-02 o  ~
  ---------------------------------------------------------------------------------------------

	Writing optimization data to binary file.
	Structure for next step:
	Cartesian Geometry (in Angstrom)
	    C     1.4185949080  -0.9041295978   0.3254977259
	    C     0.2619469472  -0.1523591344   0.0463464971
	    C    -0.7207326049  -0.6916508253  -0.8121789412
	    C    -0.5547777716  -1.9581094362  -1.3794098150
	    C     0.6007987394  -2.7049854023  -1.0949877127
	    C     1.5873196234  -2.1735082602  -0.2403305974
	    C     0.0908709770   1.2154096907   0.6032779985
	    C     0.1629965578   2.4357970101  -0.3439610565
	    C    -1.2206542924   3.1165524119  -0.2585767954
	    C    -1.6757192878   2.9162841043   1.1997597217
	    C    -1.0614214816   1.5164714478   1.6046231664
	    C     0.4431630419   1.4611839783   2.0366182902
	    O     0.7224912801  -3.9354637881  -1.6648610320
	    H     2.1923235334  -0.4912107950   0.9814453573
	    H     2.4901593749  -2.7505672141  -0.0176395974
	    H    -1.3208538251  -2.3738543756  -2.0392124659
	    H    -1.6283034787  -0.1174712120  -1.0287809866
	    H     0.7408957036   0.6004193161   2.6428703744
	    H     0.9195217493   2.4148870772   2.2859085323
	    H    -1.9231673003   2.5818580358  -0.9207969827
	    H    -1.2096972259   4.1745072190  -0.5635909089
	    H    -2.7696820566   2.9180322854   1.3159839304
	    H    -1.2734963050   3.7201571555   1.8421122044
	    H    -1.7171449301   0.6999069534   1.9273736178
	    H     0.3878242378   2.1069499772  -1.3681512463
	    H     0.9705663007   3.1180007230  -0.0266962748
	    H    -1.0345629596   2.0843053753   2.5033427048
	    H     1.5585685748  -4.3212042873  -1.3797749372
			--------------------------
			 OPTKING Finished Execution 
			--------------------------

    Structure for next step:
    Molecular point group: c1
    Full point group: C1

    Geometry (in Angstrom), charge = 1, multiplicity = 1:

    C            1.419169068131    -0.906717570311     0.326563424116
    C            0.262521102759    -0.154947103950     0.047412194234
    C           -0.720158453207    -0.694238796955    -0.811113247441
    C           -0.554203619314    -1.960697412806    -1.378344123513
    C            0.601372896283    -2.707573381853    -1.093922020094
    C            1.587893784181    -2.176096237641    -0.239264901446
    C            0.091445131902     1.212821726522     0.604343697856
    C            0.163570712935     2.433209050758    -0.342895360867
    C           -1.220080142650     3.113964455210    -0.257511099445
    C           -1.675145139854     2.913696146785     1.200825423410
    C           -1.060847331217     1.513883484819     1.605688869656
    C            0.443737198179     1.458596015074     2.037683995189
    O            0.723065437439    -3.938051772464    -1.663795341565
    H            2.192897696542    -0.493798765878     0.982511058064
    H            2.490733539164    -2.753155193793    -0.016573900532
    H           -1.320279675746    -2.376442353903    -2.038146776986
    H           -1.627729330630    -0.120059181395    -1.027715293682
    H            0.741469861070     0.597831349549     2.643936081708
    H            0.920095907405     2.412299117732     2.286974238195
    H           -1.922593153391     2.579270076989    -0.919731289352
    H           -1.209123076138     4.171919266497    -0.562525214143
    H           -2.769107912966     2.915444327907     1.317049632546
    H           -1.272922155500     3.717569201165     1.843177908582
    H           -1.716570782339     0.697318987227     1.928439322310
    H            0.388398393835     2.104362016528    -1.367085554705
    H            0.971140459024     3.115412766370    -0.025630577952
    H           -1.033988809169     2.081717414541     2.504408411578
    H            1.559142735475    -4.323792273219    -1.378709245699


Scratch directory: /tmp/
gradient() will perform analytic gradient computation.

*** tstart() called on skystd14.palmetto.clemson.edu
*** at Fri Nov 12 01:44:30 2021

   => Loading Basis Set <=

    Name: CC-PVDZ
    Role: ORBITAL
    Keyword: BASIS
    atoms 1-12  entry C          line   138 file /home/maxbuskirk/.conda/envs/psifour/share/psi4/basis/cc-pvdz.gbs 
    atoms 13    entry O          line   198 file /home/maxbuskirk/.conda/envs/psifour/share/psi4/basis/cc-pvdz.gbs 
    atoms 14-28 entry H          line    22 file /home/maxbuskirk/.conda/envs/psifour/share/psi4/basis/cc-pvdz.gbs 


         ---------------------------------------------------------
                                   SCF
               by Justin Turney, Rob Parrish, Andy Simmonett
                          and Daniel G. A. Smith
                              RHF Reference
                        1 Threads,  30517 MiB Core
         ---------------------------------------------------------

  ==> Geometry <==

    Molecular point group: c1
    Full point group: C1

    Geometry (in Angstrom), charge = 1, multiplicity = 1:

       Center              X                  Y                   Z               Mass       
    ------------   -----------------  -----------------  -----------------  -----------------
         C            1.419169068131    -0.906717570311     0.326563424116    12.000000000000
         C            0.262521102759    -0.154947103950     0.047412194234    12.000000000000
         C           -0.720158453207    -0.694238796955    -0.811113247441    12.000000000000
         C           -0.554203619314    -1.960697412806    -1.378344123513    12.000000000000
         C            0.601372896283    -2.707573381853    -1.093922020094    12.000000000000
         C            1.587893784181    -2.176096237641    -0.239264901446    12.000000000000
         C            0.091445131902     1.212821726522     0.604343697856    12.000000000000
         C            0.163570712935     2.433209050758    -0.342895360867    12.000000000000
         C           -1.220080142650     3.113964455210    -0.257511099445    12.000000000000
         C           -1.675145139854     2.913696146785     1.200825423410    12.000000000000
         C           -1.060847331217     1.513883484819     1.605688869656    12.000000000000
         C            0.443737198179     1.458596015074     2.037683995189    12.000000000000
         O            0.723065437439    -3.938051772464    -1.663795341565    15.994914619570
         H            2.192897696542    -0.493798765878     0.982511058064     1.007825032230
         H            2.490733539164    -2.753155193793    -0.016573900532     1.007825032230
         H           -1.320279675746    -2.376442353903    -2.038146776986     1.007825032230
         H           -1.627729330630    -0.120059181395    -1.027715293682     1.007825032230
         H            0.741469861070     0.597831349549     2.643936081708     1.007825032230
         H            0.920095907405     2.412299117732     2.286974238195     1.007825032230
         H           -1.922593153391     2.579270076989    -0.919731289352     1.007825032230
         H           -1.209123076138     4.171919266497    -0.562525214143     1.007825032230
         H           -2.769107912966     2.915444327907     1.317049632546     1.007825032230
         H           -1.272922155500     3.717569201165     1.843177908582     1.007825032230
         H           -1.716570782339     0.697318987227     1.928439322310     1.007825032230
         H            0.388398393835     2.104362016528    -1.367085554705     1.007825032230
         H            0.971140459024     3.115412766370    -0.025630577952     1.007825032230
         H           -1.033988809169     2.081717414541     2.504408411578     1.007825032230
         H            1.559142735475    -4.323792273219    -1.378709245699     1.007825032230

  Running in c1 symmetry.

  Rotational constants: A =      0.07071  B =      0.01437  C =      0.01331 [cm^-1]
  Rotational constants: A =   2119.93944  B =    430.85353  C =    399.05517 [MHz]
  Nuclear repulsion =  776.489849518463529

  Charge       = 1
  Multiplicity = 1
  Electrons    = 94
  Nalpha       = 47
  Nbeta        = 47

  ==> Algorithm <==

  SCF Algorithm Type is DF.
  DIIS enabled.
  MOM disabled.
  Fractional occupation disabled.
  Guess Type is READ.
  Energy threshold   = 1.00e-10
  Density threshold  = 1.00e-10
  Integral threshold = 1.00e-12

  ==> Primary Basis <==

  Basis Set: CC-PVDZ
    Blend: CC-PVDZ
    Number of shells: 123
    Number of basis functions: 257
    Number of Cartesian functions: 270
    Spherical Harmonics?: true
    Max angular momentum: 2

   => Loading Basis Set <=

    Name: (CC-PVDZ AUX)
    Role: JKFIT
    Keyword: DF_BASIS_SCF
    atoms 1-12  entry C          line   121 file /home/maxbuskirk/.conda/envs/psifour/share/psi4/basis/cc-pvdz-jkfit.gbs 
    atoms 13    entry O          line   221 file /home/maxbuskirk/.conda/envs/psifour/share/psi4/basis/cc-pvdz-jkfit.gbs 
    atoms 14-28 entry H          line    51 file /home/maxbuskirk/.conda/envs/psifour/share/psi4/basis/cc-pvdz-jkfit.gbs 

   => Loading Basis Set <=

    Name: CC-PVDZ
    Role: ORBITAL
    Keyword: BASIS
    atoms 1-12  entry C          line   138 file /home/maxbuskirk/.conda/envs/psifour/share/psi4/basis/cc-pvdz.gbs 
    atoms 13    entry O          line   198 file /home/maxbuskirk/.conda/envs/psifour/share/psi4/basis/cc-pvdz.gbs 
    atoms 14-28 entry H          line    22 file /home/maxbuskirk/.conda/envs/psifour/share/psi4/basis/cc-pvdz.gbs 

  Reading orbitals from file /tmp/1OH.mol.1279261.180.npy, no projection.

  ==> Integral Setup <==

  DFHelper Memory: AOs need 0.569 GiB; user supplied 22.352 GiB. Using in-core AOs.

  ==> MemDFJK: Density-Fitted J/K Matrices <==

    J tasked:                   Yes
    K tasked:                   Yes
    wK tasked:                   No
    OpenMP threads:               1
    Memory [MiB]:             22888
    Algorithm:                 Core
    Schwarz Cutoff:           1E-12
    Mask sparsity (%):      11.5278
    Fitting Condition:        1E-10

   => Auxiliary Basis Set <=

  Basis Set: (CC-PVDZ AUX)
    Blend: CC-PVDZ-JKFIT
    Number of shells: 447
    Number of basis functions: 1255
    Number of Cartesian functions: 1428
    Spherical Harmonics?: true
    Max angular momentum: 3

  Minimum eigenvalue in the overlap matrix is 3.4215822594E-04.
  Reciprocal condition number of the overlap matrix is 4.7050055289E-05.
    Using symmetric orthogonalization.

  ==> Pre-Iterations <==

  SCF Guess: Orbitals guess was supplied from a previous computation.

   -------------------------------------------------------
    Irrep   Nso     Nmo     Nalpha   Nbeta   Ndocc  Nsocc
   -------------------------------------------------------
     A        257     257      47      47      47       0
   -------------------------------------------------------
    Total     257     257      47      47      47       0
   -------------------------------------------------------

  ==> Iterations <==

                           Total Energy        Delta E     RMS |[F,P]|

   @DF-RHF iter   0:  -537.57013916836024   -5.37570e+02   1.68911e-03 
   @DF-RHF iter   1:  -537.70630899618038   -1.36170e-01   2.75812e-04 DIIS
   @DF-RHF iter   2:  -537.70873886766481   -2.42987e-03   1.41881e-04 DIIS
   @DF-RHF iter   3:  -537.70939842423923   -6.59557e-04   2.00951e-05 DIIS
   @DF-RHF iter   4:  -537.70942489061713   -2.64664e-05   8.29812e-06 DIIS
   @DF-RHF iter   5:  -537.70942977012032   -4.87950e-06   3.49674e-06 DIIS
   @DF-RHF iter   6:  -537.70943073991748   -9.69797e-07   1.42562e-06 DIIS
   @DF-RHF iter   7:  -537.70943095904443   -2.19127e-07   4.85177e-07 DIIS
   @DF-RHF iter   8:  -537.70943098517387   -2.61294e-08   2.06802e-07 DIIS
   @DF-RHF iter   9:  -537.70943099065551   -5.48164e-09   7.83792e-08 DIIS
   @DF-RHF iter  10:  -537.70943099149974   -8.44238e-10   4.12035e-08 DIIS
   @DF-RHF iter  11:  -537.70943099177214   -2.72394e-10   1.58078e-08 DIIS
   @DF-RHF iter  12:  -537.70943099182045   -4.83169e-11   6.27076e-09 DIIS
   @DF-RHF iter  13:  -537.70943099182489   -4.43379e-12   2.32228e-09 DIIS
   @DF-RHF iter  14:  -537.70943099182739   -2.50111e-12   6.85645e-10 DIIS
   @DF-RHF iter  15:  -537.70943099182625    1.13687e-12   2.53507e-10 DIIS
   @DF-RHF iter  16:  -537.70943099182500    1.25056e-12   1.06945e-10 DIIS
   @DF-RHF iter  17:  -537.70943099182546   -4.54747e-13   4.88420e-11 DIIS
  Energy and wave function converged.


  ==> Post-Iterations <==

    Orbital Energies [Eh]
    ---------------------

    Doubly Occupied:                                                      

       1A    -20.700961     2A    -11.483623     3A    -11.464455  
       4A    -11.455927     5A    -11.436407     6A    -11.434564  
       7A    -11.395680     8A    -11.392011     9A    -11.386974  
      10A    -11.384005    11A    -11.382870    12A    -11.364387  
      13A    -11.359812    14A     -1.517127    15A     -1.408002  
      16A     -1.278955    17A     -1.222202    18A     -1.192242  
      19A     -1.146581    20A     -1.127904    21A     -1.036520  
      22A     -1.000610    23A     -0.974083    24A     -0.965235  
      25A     -0.937058    26A     -0.872582    27A     -0.851119  
      28A     -0.818436    29A     -0.811649    30A     -0.785075  
      31A     -0.773072    32A     -0.762883    33A     -0.739200  
      34A     -0.716004    35A     -0.707645    36A     -0.702659  
      37A     -0.697257    38A     -0.680836    39A     -0.659943  
      40A     -0.652131    41A     -0.643655    42A     -0.635841  
      43A     -0.620312    44A     -0.604044    45A     -0.593552  
      46A     -0.467436    47A     -0.436988  

    Virtual:                                                              

      48A     -0.049117    49A     -0.002864    50A      0.014651  
      51A      0.015336    52A      0.037404    53A      0.049014  
      54A      0.050466    55A      0.077302    56A      0.085563  
      57A      0.092658    58A      0.096936    59A      0.107237  
      60A      0.120475    61A      0.136973    62A      0.143409  
      63A      0.145590    64A      0.160447    65A      0.168606  
      66A      0.195619    67A      0.204890    68A      0.226424  
      69A      0.232337    70A      0.241868    71A      0.263427  
      72A      0.293057    73A      0.306796    74A      0.320650  
      75A      0.344622    76A      0.351564    77A      0.356955  
      78A      0.378096    79A      0.392894    80A      0.444803  
      81A      0.447483    82A      0.473434    83A      0.486605  
      84A      0.504493    85A      0.511492    86A      0.520682  
      87A      0.528699    88A      0.536446    89A      0.566212  
      90A      0.570761    91A      0.580972    92A      0.588930  
      93A      0.598044    94A      0.607557    95A      0.619622  
      96A      0.633300    97A      0.637287    98A      0.653279  
      99A      0.654716   100A      0.664132   101A      0.671380  
     102A      0.682293   103A      0.691049   104A      0.697279  
     105A      0.698919   106A      0.706400   107A      0.710163  
     108A      0.722997   109A      0.731404   110A      0.741141  
     111A      0.745073   112A      0.748365   113A      0.750570  
     114A      0.760303   115A      0.772545   116A      0.776006  
     117A      0.783641   118A      0.789911   119A      0.797881  
     120A      0.812516   121A      0.821050   122A      0.843651  
     123A      0.874007   124A      0.889827   125A      0.930705  
     126A      0.963717   127A      0.977548   128A      1.010954  
     129A      1.031873   130A      1.040711   131A      1.049477  
     132A      1.057811   133A      1.087991   134A      1.109082  
     135A      1.110842   136A      1.124712   137A      1.135883  
     138A      1.148514   139A      1.168470   140A      1.173573  
     141A      1.184808   142A      1.195312   143A      1.213660  
     144A      1.225228   145A      1.236841   146A      1.256138  
     147A      1.290352   148A      1.308005   149A      1.316651  
     150A      1.321520   151A      1.342330   152A      1.366245  
     153A      1.397355   154A      1.439629   155A      1.452595  
     156A      1.477973   157A      1.494076   158A      1.504192  
     159A      1.509314   160A      1.552832   161A      1.559821  
     162A      1.592981   163A      1.601907   164A      1.612865  
     165A      1.625249   166A      1.645450   167A      1.653361  
[...]
	  167 D(12,7,11,24)   =   -121.336203     0.000000     0.084231  -121.251972
	  168 D(12,7,11,27)   =     -0.256516    -0.000000     0.026893    -0.229623
	  169 D(12,11,10,22)  =    178.014888    -0.000001    -0.161781   177.853107
	  170 D(12,11,10,23)  =    -64.637661    -0.000000    -0.164448   -64.802110
	  171 D(13,5,4,16)    =      0.075260    -0.000001    -0.095617    -0.020358
	  172 D(13,5,6,15)    =     -0.053276     0.000001     0.073623     0.020347
	  173 D(14,1,6,15)    =     -0.034195     0.000000     0.035220     0.001025
	  174 D(16,4,3,17)    =      0.070324    -0.000000    -0.064643     0.005682
	  175 D(18,12,11,24)  =    -54.676772     0.000002     0.205556   -54.471216
	  176 D(18,12,11,27)  =     60.435798     0.000001     0.104392    60.540190
	  177 D(19,12,11,24)  =   -176.763958    -0.000001     0.029727  -176.734231
	  178 D(19,12,11,27)  =    -61.651387    -0.000002    -0.071437   -61.722824
	  179 D(20,9,8,25)    =     54.484816     0.000000    -0.089056    54.395759
	  180 D(20,9,8,26)    =    176.775935    -0.000000    -0.108851   176.667084
	  181 D(20,9,10,22)   =    -56.581385     0.000001     0.278844   -56.302541
	  182 D(20,9,10,23)   =   -173.943337     0.000001     0.294986  -173.648351
	  183 D(21,9,8,25)    =    -60.492804    -0.000000    -0.103200   -60.596004
	  184 D(21,9,8,26)    =     61.798315    -0.000000    -0.122994    61.675321
	  185 D(21,9,10,22)   =     65.422709     0.000000     0.269541    65.692251
	  186 D(21,9,10,23)   =    -51.939243     0.000001     0.285684   -51.653559
	  187 D(22,10,11,24)  =     56.631676    -0.000001    -0.266190    56.365486
	  188 D(22,10,11,27)  =    -65.385489    -0.000001    -0.210640   -65.596129
	  189 D(23,10,11,24)  =    173.979127    -0.000001    -0.268858   173.710269
	  190 D(23,10,11,27)  =     51.961962    -0.000000    -0.213308    51.748654
	 ---------------------------------------------------------------------------
	Successfully symmetrized geometry.

  ==> Convergence Check <==

  Measures of convergence in internal coordinates in au.
  Criteria marked as inactive (o), active & met (*), and active & unmet ( ).
  ---------------------------------------------------------------------------------------------
   Step     Total Energy     Delta E     MAX Force     RMS Force      MAX Disp      RMS Disp   
  ---------------------------------------------------------------------------------------------
    Convergence Criteria    1.00e-06 *    3.00e-04 *             o    1.20e-03 *             o
  ---------------------------------------------------------------------------------------------
     48    -539.60725263   -2.75e-07 *    2.34e-04 *    4.70e-05 o    5.15e-03      1.63e-03 o  ~
  ---------------------------------------------------------------------------------------------


  **** Optimization is complete! (in 48 steps) ****

  ==> Optimization Summary <==

  Measures of convergence in internal coordinates in au.
  --------------------------------------------------------------------------------------------------------------- ~
   Step         Total Energy             Delta E       MAX Force       RMS Force        MAX Disp        RMS Disp  ~
  --------------------------------------------------------------------------------------------------------------- ~
      1    -539.479853939791   -539.479853939791      0.31303197      0.02351947      0.34795396      0.03204026  ~
      2    -539.552457530077     -0.072603590286      0.05271591      0.00501639      0.13970500      0.03637345  ~
      3    -539.570428905631     -0.017971375553      0.02372658      0.00270023      0.15802599      0.03633590  ~
      4    -539.581430353539     -0.011001447908      0.00938996      0.00152402      0.14699715      0.03597805  ~
      5    -539.587438705118     -0.006008351579      0.00770040      0.00114126      0.13785174      0.03620665  ~
      6    -539.591061119994     -0.003622414876      0.01404730      0.00133929      0.14889560      0.03625828  ~
      7    -539.594565328801     -0.003504208807      0.01644798      0.00152815      0.14916893      0.03627821  ~
      8    -539.598294360711     -0.003729031910      0.01416709      0.00144965      0.13828368      0.03589141  ~
      9    -539.601885397411     -0.003591036699      0.00952214      0.00131439      0.11527268      0.03563350  ~
     10    -539.605705153624     -0.003819756213      0.00939897      0.00138025      0.16381093      0.03628977  ~
     11    -539.602855515738      0.002849637886      0.00802008      0.00117209      0.18427021      0.03632731  ~
     12    -539.601378711135      0.001476804603      0.00677195      0.00116158      0.14291871      0.03626980  ~
     13    -539.599111152064      0.002267559071      0.00548449      0.00099282      0.12406722      0.03627044  ~
     14    -539.597061663137      0.002049488927      0.00454326      0.00089333      0.12326407      0.03626048  ~
     15    -539.594990323449      0.002071339688      0.00397555      0.00082051      0.09544158      0.02830460  ~
     16    -539.597234492549     -0.002244169099      0.00404454      0.00080037      0.11292707      0.03397282  ~
     17    -539.600036709635     -0.002802217086      0.00442896      0.00091097      0.11065315      0.03626633  ~
     18    -539.597791967820      0.002244741815      0.00373201      0.00069242      0.12861137      0.03626936  ~
     19    -539.595663953538      0.002128014282      0.00340690      0.00067278      0.10425909      0.03627226  ~
     20    -539.593304887883      0.002359065655      0.00250168      0.00056060      0.12620492      0.03626906  ~
     21    -539.591146284197      0.002158603685      0.00253111      0.00058306      0.13954572      0.03625493  ~
     22    -539.589342323745      0.001803960453      0.00241945      0.00058012      0.17959451      0.03625518  ~
     23    -539.588428394949      0.000913928795      0.00293661      0.00069423      0.21060593      0.03626855  ~
     24    -539.590451045991     -0.002022651042      0.00496272      0.00102999      0.15178079      0.03626427  ~
     25    -539.591338427446     -0.000887381454      0.00417350      0.00093166      0.13458594      0.03624883  ~
     26    -539.592949228721     -0.001610801275      0.00475779      0.00099152      0.13425781      0.03615393  ~
     27    -539.594833217345     -0.001883988624      0.00473932      0.00112016      0.12998234      0.03626992  ~
     28    -539.597404042011     -0.002570824666      0.00294167      0.00078576      0.11139983      0.03626752  ~
     29    -539.600285413204     -0.002881371193      0.00215054      0.00068072      0.13019977      0.03628307  ~
     30    -539.603023210247     -0.002737797043      0.00253509      0.00067206      0.15429366      0.03630332  ~
     31    -539.604161276136     -0.001138065890      0.00340675      0.00087678      0.11685105      0.03630719  ~
     32    -539.606111364706     -0.001950088570      0.00327791      0.00069601      0.15132424      0.03439955  ~
     33    -539.606950218961     -0.000838854254      0.00233818      0.00049567      0.08770268      0.01698772  ~
     34    -539.606910052279      0.000040166682      0.00105477      0.00032367      0.03023052      0.00616973  ~
     35    -539.606990103890     -0.000080051611      0.00091930      0.00018478      0.02557402      0.00801434  ~
     36    -539.607022786872     -0.000032682982      0.00195277      0.00026799      0.11073455      0.02939719  ~
     37    -539.606687943496      0.000334843376      0.00403750      0.00062922      0.05290684      0.01430077  ~
     38    -539.607052955079     -0.000365011584      0.00159248      0.00026794      0.02065310      0.00585973  ~
     39    -539.607128456542     -0.000075501463      0.00063204      0.00015400      0.03438367      0.01245983  ~
     40    -539.607126914630      0.000001541912      0.00116439      0.00018600      0.01626436      0.00531830  ~
     41    -539.607173040817     -0.000046126187      0.00078702      0.00012861      0.01751927      0.00484997  ~
     42    -539.607189172867     -0.000016132051      0.00102195      0.00014694      0.01184722      0.00359912  ~
     43    -539.607209512846     -0.000020339979      0.00056159      0.00009883      0.01278460      0.00370894  ~
     44    -539.607226798044     -0.000017285197      0.00042473      0.00007674      0.02501842      0.00613806  ~
     45    -539.607241422679     -0.000014624635      0.00040961      0.00007239      0.00483068      0.00094660  ~
     46    -539.607246791668     -0.000005368989      0.00034268      0.00005161      0.00841371      0.00288904  ~
     47    -539.607252356678     -0.000005565010      0.00033158      0.00006909      0.00801544      0.00252067  ~
     48    -539.607252632091     -0.000000275414      0.00023385      0.00004699      0.00514848      0.00163074  ~
  --------------------------------------------------------------------------------------------------------------- ~

	Writing optimization data to binary file.
	Final energy is   -539.6072526320913
	Final (previous) structure:
	Cartesian Geometry (in Angstrom)
	    C     1.6378617759  -0.6176445007  -0.4455245784
	    C     0.3791059847  -0.0890380566  -0.0809358943
	    C    -0.7888437830  -0.8601128073  -0.2680823425
	    C    -0.6923249847  -2.1441786870  -0.8123870986
	    C     0.5581894402  -2.6783567092  -1.1785476907
	    C     1.7202184581  -1.9048856884  -0.9907371878
	    C     0.3955391383   1.2689411610   0.4800725908
	    C     0.1647222650   2.4222548665  -0.3696731512
	    C    -1.4066433513   2.6524520932  -0.0969199726
	    C    -1.6487958748   2.8744057709   1.3894468522
	    C    -1.1349697870   1.6962466912   2.2050539048
	    C     0.4335450928   1.4733734861   1.9169177058
	    O     0.5599064562  -3.9244836224  -1.6989484943
	    H     2.5534072821  -0.0339690932  -0.3080325083
	    H     2.7011665542  -2.3031090981  -1.2700487827
	    H    -1.5871808531  -2.7532220047  -0.9628171293
	    H    -1.7732458444  -0.4739128059   0.0063279329
	    H     0.7761080427   0.5956082556   2.4788275028
	    H     0.9418893731   2.4007634064   2.2184238418
	    H    -1.9707268180   1.7869858441  -0.4791370793
	    H    -1.6692639653   3.5238726684  -0.7174377523
	    H    -2.7313096943   2.9954117794   1.5673206561
	    H    -1.1598268644   3.8068779294   1.7195091775
	    H    -1.6812556808   0.7685929209   1.9718693021
	    H     0.3146739256   2.2201394913  -1.4373796777
	    H     0.6788784333   3.3318023510  -0.0268764245
	    H    -1.1969945092   1.8584314797   3.2929431338
	    H     1.4706780545  -4.1799687141  -1.9112172338
	Saving final (previous) structure.
	Cleaning optimization helper files.
			--------------------------
			 OPTKING Finished Execution 
			--------------------------

    Final optimized geometry and variables:
    Molecular point group: c1
    Full point group: C1

    Geometry (in Angstrom), charge = 1, multiplicity = 1:

    C            1.637861782350    -0.617644503109    -0.445524580165
    C            0.379105986153    -0.089038056935    -0.080935894651
    C           -0.788843786145    -0.860112810664    -0.268082343529
    C           -0.692324987423    -2.144178695475    -0.812387101757
    C            0.558189442357    -2.678356719751    -1.178547695294
    C            1.720218464833    -1.904885695888    -0.990737191721
    C            0.395539139844     1.268941165970     0.480072592689
    C            0.164722265604     2.422254876005    -0.369673152658
    C           -1.406643356781     2.652452103634    -0.096919972943
    C           -1.648795881325     2.874405782211     1.389446857702
    C           -1.134969791467     1.696246697866     2.205053913499
    C            0.433545094456     1.473373491939     1.916917713311
    O            0.559906458356    -3.924483637781    -1.698948501014
    H            2.553407292141    -0.033969093369    -0.308032509485
    H            2.701166564829    -2.303109107176    -1.270048787660
    H           -1.587180859337    -2.753222015483    -0.962817133134
    H           -1.773245851373    -0.473912807714     0.006327932908
    H            0.776108045770     0.595608257895     2.478827512578
    H            0.941889376757     2.400763415840     2.218423850510
    H           -1.970726825713     1.786985851105    -0.479137081151
    H           -1.669263971859     3.523872682296    -0.717437755103
    H           -2.731309705017     2.995411791209     1.567320662267
    H           -1.159826868911     3.806877944408     1.719509184288
    H           -1.681255687418     0.768592923962     1.971869309862
    H            0.314673926846     2.220139499977    -1.437379683397
    H            0.678878435920     3.331802364084    -0.026876424619
    H           -1.196994513880     1.858431487053     3.292943146699
    H            1.470678060261    -4.179968730482    -1.911217241312

	Removing binary optimization data file.
	Cleaning optimization helper files.


Properties will be evaluated at   0.000000,   0.000000,   0.000000 [a0]
OEProp: No title given, name of density matrix used for the following properties is 'DF-MP2 relaxed density'
  Mulliken Charges: (a.u.)
   Center  Symbol    Alpha    Beta     Spin     Total
       1     C     2.98958  2.98958  0.00000  0.02084
       2     C     3.03413  3.03413  0.00000 -0.06825
       3     C     3.01118  3.01118  0.00000 -0.02236
       4     C     2.98465  2.98465  0.00000  0.03069
       5     C     2.95618  2.95618  0.00000  0.08763
       6     C     3.01263  3.01263  0.00000 -0.02527
       7     C     3.04820  3.04820  0.00000 -0.09640
       8     C     2.96918  2.96918  0.00000  0.06164
       9     C     3.05206  3.05206  0.00000 -0.10413
      10     C     3.03252  3.03252  0.00000 -0.06504
      11     C     3.05188  3.05188  0.00000 -0.10377
      12     C     2.96958  2.96958  0.00000  0.06084
      13     O     4.08734  4.08734  0.00000 -0.17468
      14     H     0.47857  0.47857  0.00000  0.04286
      15     H     0.47011  0.47011  0.00000  0.05978
      16     H     0.46668  0.46668  0.00000  0.06664
      17     H     0.48060  0.48060  0.00000  0.03880
      18     H     0.44595  0.44595  0.00000  0.10811
      19     H     0.44763  0.44763  0.00000  0.10473
      20     H     0.45433  0.45433  0.00000  0.09134
      21     H     0.44468  0.44468  0.00000  0.11064
      22     H     0.44956  0.44956  0.00000  0.10088
      23     H     0.46019  0.46019  0.00000  0.07962
      24     H     0.45443  0.45443  0.00000  0.09115
      25     H     0.44590  0.44590  0.00000  0.10820
      26     H     0.44752  0.44752  0.00000  0.10497
      27     H     0.44472  0.44472  0.00000  0.11055
      28     H     0.41002  0.41002  0.00000  0.17996

   Total alpha = 47.00000, Total beta = 47.00000, Total charge =  1.00000

    Molecular point group: c1
    Full point group: C1

    Geometry (in Angstrom), charge = 1, multiplicity = 1:

       Center              X                  Y                   Z               Mass       
    ------------   -----------------  -----------------  -----------------  -----------------
         C            1.637861782350    -0.617644503109    -0.445524580165    12.000000000000
         C            0.379105986153    -0.089038056935    -0.080935894651    12.000000000000
         C           -0.788843786145    -0.860112810664    -0.268082343529    12.000000000000
         C           -0.692324987423    -2.144178695475    -0.812387101757    12.000000000000
         C            0.558189442357    -2.678356719751    -1.178547695294    12.000000000000
         C            1.720218464833    -1.904885695888    -0.990737191721    12.000000000000
         C            0.395539139844     1.268941165970     0.480072592689    12.000000000000
         C            0.164722265604     2.422254876005    -0.369673152658    12.000000000000
         C           -1.406643356781     2.652452103634    -0.096919972943    12.000000000000
         C           -1.648795881325     2.874405782211     1.389446857702    12.000000000000
         C           -1.134969791467     1.696246697866     2.205053913499    12.000000000000
         C            0.433545094456     1.473373491939     1.916917713311    12.000000000000
         O            0.559906458356    -3.924483637781    -1.698948501014    15.994914619570
         H            2.553407292141    -0.033969093369    -0.308032509485     1.007825032230
         H            2.701166564829    -2.303109107176    -1.270048787660     1.007825032230
         H           -1.587180859337    -2.753222015483    -0.962817133134     1.007825032230
         H           -1.773245851373    -0.473912807714     0.006327932908     1.007825032230
         H            0.776108045770     0.595608257895     2.478827512578     1.007825032230
         H            0.941889376757     2.400763415840     2.218423850510     1.007825032230
         H           -1.970726825713     1.786985851105    -0.479137081151     1.007825032230
         H           -1.669263971859     3.523872682296    -0.717437755103     1.007825032230
         H           -2.731309705017     2.995411791209     1.567320662267     1.007825032230
         H           -1.159826868911     3.806877944408     1.719509184288     1.007825032230
         H           -1.681255687418     0.768592923962     1.971869309862     1.007825032230
         H            0.314673926846     2.220139499977    -1.437379683397     1.007825032230
         H            0.678878435920     3.331802364084    -0.026876424619     1.007825032230
         H           -1.196994513880     1.858431487053     3.292943146699     1.007825032230
         H            1.470678060261    -4.179968730482    -1.911217241312     1.007825032230



  Variable Map:
  ----------------------------------------------------------------------------
  "CURRENT CORRELATION ENERGY"           =>      -1.817437109843
  "CURRENT DIPOLE X"                     =>       0.978754291485
  "CURRENT DIPOLE Y"                     =>       5.086460645804
  "CURRENT DIPOLE Z"                     =>       1.995847722706
  "CURRENT ENERGY"                       =>    -539.607252632091
  "CURRENT REFERENCE ENERGY"             =>    -537.789815522249
  "CUSTOM SCS-MP2 CORRELATION ENERGY"    =>      -1.770612042549
  "CUSTOM SCS-MP2 TOTAL ENERGY"          =>    -539.560427564798
  "HF TOTAL ENERGY"                      =>    -537.789815522249
  "MP2 CORRELATION ENERGY"               =>      -1.817437109843
  "MP2 DOUBLES ENERGY"                   =>      -1.817437109843
  "MP2 OPPOSITE-SPIN CORRELATION ENERGY" =>      -1.343999622232
  "MP2 SAME-SPIN CORRELATION ENERGY"     =>      -0.473437487610
  "MP2 SINGLES ENERGY"                   =>      -0.000000000000
  "MP2 TOTAL ENERGY"                     =>    -539.607252632091
  "NUCLEAR REPULSION ENERGY"             =>     770.703320163396
  "ONE-ELECTRON ENERGY"                  =>   -2243.213313316574
  "OPTIMIZATION ITERATIONS"              =>      48.000000000000
  "PCM POLARIZATION ENERGY"              =>       0.000000000000
  "PE ENERGY"                            =>       0.000000000000
  "SCF DIPOLE X"                         =>       0.978754291485
  "SCF DIPOLE Y"                         =>       5.086460645804
  "SCF DIPOLE Z"                         =>       1.995847722706
  "SCF ITERATION ENERGY"                 =>    -537.789815522249
  "SCF ITERATIONS"                       =>      14.000000000000
  "SCF TOTAL ENERGY"                     =>    -537.789815522249
  "SCS-MP2 CORRELATION ENERGY"           =>      -1.770612042549
  "SCS-MP2 TOTAL ENERGY"                 =>    -539.560427564798
  "TWO-ELECTRON ENERGY"                  =>     934.720177630929



    Psi4 stopped on: Friday, 12 November 2021 03:13AM
    Psi4 wall time for execution: 1:30:41.73

*** Psi4 exiting successfully. Buy a developer a beer!
