
    -----------------------------------------------------------------------
          Psi4: An Open-Source Ab Initio Electronic Structure Package
                               Psi4 1.4 release

                         Git: Rev {HEAD} 9485035 


    D. G. A. Smith, L. A. Burns, A. C. Simmonett, R. M. Parrish,
    M. C. Schieber, R. Galvelis, P. Kraus, H. Kruse, R. Di Remigio,
    A. Alenaizan, A. M. James, S. Lehtola, J. P. Misiewicz, M. Scheurer,
    R. A. Shaw, J. B. Schriber, Y. Xie, Z. L. Glick, D. A. Sirianni,
    J. S. O'Brien, J. M. Waldrop, A. Kumar, E. G. Hohenstein,
    B. P. Pritchard, B. R. Brooks, H. F. Schaefer III, A. Yu. Sokolov,
    K. Patkowski, A. E. DePrince III, U. Bozkaya, R. A. King,
    F. A. Evangelista, J. M. Turney, T. D. Crawford, C. D. Sherrill,
    J. Chem. Phys. 152(18) 184108 (2020). https://doi.org/10.1063/5.0006002

                            Additional Code Authors
    E. T. Seidl, C. L. Janssen, E. F. Valeev, M. L. Leininger,
    J. F. Gonthier, R. M. Richard, H. R. McAlexander, M. Saitow, X. Wang,
    P. Verma, and M. H. Lechner

             Previous Authors, Complete List of Code Contributors,
                       and Citations for Specific Modules
    https://github.com/psi4/psi4/blob/master/codemeta.json
    https://github.com/psi4/psi4/graphs/contributors
    http://psicode.org/psi4manual/master/introduction.html#citing-psifour

    -----------------------------------------------------------------------


    Psi4 started on: Saturday, 11 December 2021 05:32PM

    Process ID: 410748
    Host:       skystd27.palmetto.clemson.edu
    PSIDATADIR: /home/maxbuskirk/.conda/envs/psifour/share/psi4
    Memory:     500.0 MiB
    Threads:    1
    
  ==> Input File <==

--------------------------------------------------------------------------
molecule mol {
0 1
C    0.00000000  0.00000000  0.00000000
C   -0.60596800 -1.22643900 -0.66495400
C   -2.02709400 -1.58300900 -0.50745700
C   -2.43823800 -2.92802500 -0.36687600
C   -3.79420800 -3.25362700 -0.21147700
C   -4.76604600 -2.24026400 -0.18223100
C   -4.36957100 -0.89748300 -0.29927000
C   -3.01413900 -0.57254200 -0.45292200
H   -2.71536900  0.47628700 -0.54544000
H   -5.11880500 -0.10042600 -0.26858100
H   -5.82299500 -2.49372900 -0.05807200
H   -4.09109700 -4.30103800 -0.09961600
H   -1.68164800 -3.71784500 -0.34781900
C    0.31906000 -1.84881900 -1.45135500
C    1.65382000 -1.13497300 -1.36532200
C    1.51129000 -0.28096600 -0.09259300
H    1.81230500 -0.88683600  0.77854100
H    2.12735300  0.63188600 -0.10372600
H    2.50985700 -1.83129300 -1.32897500
H    1.79496400 -0.50247100 -2.26494400
C    0.12013800 -2.99314900 -2.39942300
H   -0.94431100 -3.22404400 -2.55201200
H    0.56881600 -2.74955600 -3.37850200
H    0.62560000 -3.90646200 -2.03728700
H   -0.35400200  0.14438000  1.03432400
H   -0.26785300  0.91306400 -0.56714000
}

set scf_type df
set basis cc-pVDZ
set reference rhf

mol.update_geometry()
mol.symmetrize(1e-3)

e, wfn = optimize('mp2', return_wfn=True)
oeprop(wfn, "MULLIKEN_CHARGES")
mol.print_out()
print_variables()
--------------------------------------------------------------------------

Scratch directory: /local_scratch/pbs.4129831.pbs02/
gradient() will perform analytic gradient computation.

*** tstart() called on skystd27.palmetto.clemson.edu
*** at Sat Dec 11 17:32:13 2021

   => Loading Basis Set <=

    Name: CC-PVDZ
    Role: ORBITAL
    Keyword: BASIS
    atoms 1-8, 14-16, 21     entry C          line   138 file /home/maxbuskirk/.conda/envs/psifour/share/psi4/basis/cc-pvdz.gbs 
    atoms 9-13, 17-20, 22-26 entry H          line    22 file /home/maxbuskirk/.conda/envs/psifour/share/psi4/basis/cc-pvdz.gbs 


         ---------------------------------------------------------
                                   SCF
               by Justin Turney, Rob Parrish, Andy Simmonett
                          and Daniel G. A. Smith
                              RHF Reference
                        1 Threads,    500 MiB Core
         ---------------------------------------------------------

  ==> Geometry <==

    Molecular point group: c1
    Full point group: C1

    Geometry (in Angstrom), charge = 0, multiplicity = 1:

       Center              X                  Y                   Z               Mass       
    ------------   -----------------  -----------------  -----------------  -----------------
         C            1.395102899955     1.576301044008     0.681538013955    12.000000000000
         C            0.789134899955     0.349862044008     0.016584013955    12.000000000000
         C           -0.631991100045    -0.006707955992     0.174081013955    12.000000000000
         C           -1.043135100045    -1.351723955992     0.314662013955    12.000000000000
         C           -2.399105100045    -1.677325955992     0.470061013955    12.000000000000
         C           -3.370943100045    -0.663962955992     0.499307013955    12.000000000000
         C           -2.974468100045     0.678818044008     0.382268013955    12.000000000000
         C           -1.619036100045     1.003759044008     0.228616013955    12.000000000000
         H           -1.320266100045     2.052588044008     0.136098013955     1.007825032230
         H           -3.723702100045     1.475875044008     0.412957013955     1.007825032230
         H           -4.427892100045    -0.917427955992     0.623466013955     1.007825032230
         H           -2.695994100045    -2.724736955992     0.581922013955     1.007825032230
         H           -0.286545100045    -2.141543955992     0.333719013955     1.007825032230
         C            1.714162899955    -0.272517955992    -0.769816986045    12.000000000000
         C            3.048922899955     0.441328044008    -0.683783986045    12.000000000000
         C            2.906392899955     1.295335044008     0.588945013955    12.000000000000
         H            3.207407899955     0.689465044008     1.460079013955     1.007825032230
         H            3.522455899955     2.208187044008     0.577812013955     1.007825032230
         H            3.904959899955    -0.254991955992    -0.647436986045     1.007825032230
         H            3.190066899955     1.073830044008    -1.583405986045     1.007825032230
         C            1.515240899955    -1.416847955992    -1.717884986045    12.000000000000
         H            0.450791899955    -1.647742955992    -1.870473986045     1.007825032230
         H            1.963918899955    -1.173254955992    -2.696963986045     1.007825032230
         H            2.020702899955    -2.330160955992    -1.355748986045     1.007825032230
         H            1.041100899955     1.720681044008     1.715862013955     1.007825032230
         H            1.127249899955     2.489365044008     0.114398013955     1.007825032230

  Running in c1 symmetry.

  Rotational constants: A =      0.06659  B =      0.01987  C =      0.01651 [cm^-1]
  Rotational constants: A =   1996.26826  B =    595.59257  C =    495.10526 [MHz]
  Nuclear repulsion =  651.177106682362592

  Charge       = 0
  Multiplicity = 1
  Electrons    = 86
  Nalpha       = 43
  Nbeta        = 43

  ==> Algorithm <==

  SCF Algorithm Type is DF.
  DIIS enabled.
  MOM disabled.
  Fractional occupation disabled.
  Guess Type is SAD.
  Energy threshold   = 1.00e-10
  Density threshold  = 1.00e-10
  Integral threshold = 1.00e-12

  ==> Primary Basis <==

  Basis Set: CC-PVDZ
    Blend: CC-PVDZ
    Number of shells: 114
    Number of basis functions: 238
    Number of Cartesian functions: 250
    Spherical Harmonics?: true
    Max angular momentum: 2

   => Loading Basis Set <=

    Name: (CC-PVDZ AUX)
    Role: JKFIT
    Keyword: DF_BASIS_SCF
    atoms 1-8, 14-16, 21     entry C          line   121 file /home/maxbuskirk/.conda/envs/psifour/share/psi4/basis/cc-pvdz-jkfit.gbs 
    atoms 9-13, 17-20, 22-26 entry H          line    51 file /home/maxbuskirk/.conda/envs/psifour/share/psi4/basis/cc-pvdz-jkfit.gbs 

  ==> Integral Setup <==

  ==> DiskDFJK: Density-Fitted J/K Matrices <==

    J tasked:                  Yes
    K tasked:                  Yes
    wK tasked:                  No
    OpenMP threads:              1
    Integrals threads:           1
    Memory [MiB]:              375
    Algorithm:                Core
    Integral Cache:           NONE
    Schwarz Cutoff:          1E-12
    Fitting Condition:       1E-10

   => Auxiliary Basis Set <=

  Basis Set: (CC-PVDZ AUX)
    Blend: CC-PVDZ-JKFIT
    Number of shells: 414
    Number of basis functions: 1162
    Number of Cartesian functions: 1322
    Spherical Harmonics?: true
    Max angular momentum: 3

  Minimum eigenvalue in the overlap matrix is 3.3020198466E-04.
  Reciprocal condition number of the overlap matrix is 5.1145627021E-05.
    Using symmetric orthogonalization.

  ==> Pre-Iterations <==

  SCF Guess: Superposition of Atomic Densities via on-the-fly atomic UHF (no occupation information).

   -------------------------
    Irrep   Nso     Nmo    
   -------------------------
     A        238     238 
   -------------------------
    Total     238     238
   -------------------------

  ==> Iterations <==

                           Total Energy        Delta E     RMS |[F,P]|

   @DF-RHF iter SAD:  -461.87019244051089   -4.61870e+02   0.00000e+00 
   @DF-RHF iter   1:  -462.34476678108393   -4.74574e-01   2.44105e-03 DIIS
   @DF-RHF iter   2:  -462.56036406845908   -2.15597e-01   1.02487e-03 DIIS
   @DF-RHF iter   3:  -462.59381771946585   -3.34537e-02   2.50401e-04 DIIS
   @DF-RHF iter   4:  -462.59712038057023   -3.30266e-03   6.26827e-05 DIIS
   @DF-RHF iter   5:  -462.59727041559410   -1.50035e-04   1.99751e-05 DIIS
   @DF-RHF iter   6:  -462.59728768128230   -1.72657e-05   6.62402e-06 DIIS
   @DF-RHF iter   7:  -462.59728956277172   -1.88149e-06   1.83772e-06 DIIS
   @DF-RHF iter   8:  -462.59728984582046   -2.83049e-07   8.32653e-07 DIIS
   @DF-RHF iter   9:  -462.59728991262335   -6.68029e-08   3.37076e-07 DIIS
   @DF-RHF iter  10:  -462.59728992844816   -1.58248e-08   1.61972e-07 DIIS
   @DF-RHF iter  11:  -462.59728993187878   -3.43061e-09   5.96111e-08 DIIS
   @DF-RHF iter  12:  -462.59728993224689   -3.68118e-10   2.76113e-08 DIIS
   @DF-RHF iter  13:  -462.59728993235046   -1.03569e-10   1.19522e-08 DIIS
   @DF-RHF iter  14:  -462.59728993237485   -2.43858e-11   4.58024e-09 DIIS
   @DF-RHF iter  15:  -462.59728993237621   -1.36424e-12   1.81279e-09 DIIS
   @DF-RHF iter  16:  -462.59728993237690   -6.82121e-13   5.49629e-10 DIIS
   @DF-RHF iter  17:  -462.59728993237661    2.84217e-13   1.92277e-10 DIIS
   @DF-RHF iter  18:  -462.59728993237638    2.27374e-13   7.49989e-11 DIIS
  Energy and wave function converged.


  ==> Post-Iterations <==

    Orbital Energies [Eh]
    ---------------------

    Doubly Occupied:                                                      

       1A    -11.246144     2A    -11.241126     3A    -11.240869  
       4A    -11.238615     5A    -11.238049     6A    -11.237833  
       7A    -11.235080     8A    -11.229507     9A    -11.229016  
      10A    -11.228557    11A    -11.228053    12A    -11.225697  
      13A     -1.156740    14A     -1.127010    15A     -1.028103  
      16A     -1.012029    17A     -1.002364    18A     -0.942903  
      19A     -0.900041    20A     -0.822632    21A     -0.818115  
      22A     -0.778359    23A     -0.714399    24A     -0.665725  
      25A     -0.641040    26A     -0.637353    27A     -0.617304  
      28A     -0.608426    29A     -0.579685    30A     -0.567533  
      31A     -0.564273    32A     -0.540551    33A     -0.532453  
      34A     -0.505280    35A     -0.496310    36A     -0.487508  
      37A     -0.476944    38A     -0.475816    39A     -0.466005  
      40A     -0.459694    41A     -0.360958    42A     -0.330435  
      43A     -0.289633  

    Virtual:                                                              

      44A      0.115325    45A      0.134988    46A      0.177896  
      47A      0.190759    48A      0.198074    49A      0.202823  
      50A      0.216345    51A      0.229005    52A      0.229789  
      53A      0.254143    54A      0.258339    55A      0.268219  
      56A      0.271872    57A      0.286124    58A      0.292602  
      59A      0.300616    60A      0.318633    61A      0.339173  
      62A      0.365765    63A      0.390907    64A      0.397165  
      65A      0.428755    66A      0.430815    67A      0.436274  
      68A      0.457898    69A      0.483742    70A      0.488011  
      71A      0.522007    72A      0.570172    73A      0.597302  
      74A      0.605741    75A      0.620710    76A      0.637586  
      77A      0.667319    78A      0.669669    79A      0.678714  
      80A      0.693946    81A      0.699498    82A      0.710571  
      83A      0.724069    84A      0.727975    85A      0.735372  
      86A      0.738302    87A      0.747311    88A      0.752035  
      89A      0.767203    90A      0.774482    91A      0.802944  
      92A      0.815047    93A      0.832382    94A      0.839120  
      95A      0.843208    96A      0.855119    97A      0.859378  
      98A      0.871878    99A      0.876120   100A      0.885330  
     101A      0.887892   102A      0.892753   103A      0.896979  
     104A      0.906380   105A      0.916185   106A      0.920579  
     107A      0.928631   108A      0.934087   109A      0.938920  
     110A      0.946146   111A      0.953992   112A      0.963852  
     113A      0.983285   114A      0.987757   115A      1.000880  
     116A      1.017647   117A      1.040720   118A      1.064831  
     119A      1.111672   120A      1.126104   121A      1.140666  
     122A      1.151335   123A      1.156062   124A      1.176668  
     125A      1.196390   126A      1.237916   127A      1.244131  
     128A      1.249160   129A      1.276935   130A      1.293533  
     131A      1.304012   132A      1.310551   133A      1.323394  
     134A      1.352800   135A      1.361995   136A      1.382997  
     137A      1.394951   138A      1.436901   139A      1.479941  
     140A      1.487809   141A      1.504091   142A      1.521005  
     143A      1.558220   144A      1.561911   145A      1.571275  
     146A      1.598004   147A      1.626077   148A      1.650391  
     149A      1.687612   150A      1.705422   151A      1.732696  
     152A      1.739664   153A      1.749675   154A      1.761738  
     155A      1.776145   156A      1.808678   157A      1.810648  
     158A      1.831701   159A      1.845684   160A      1.854428  
     161A      1.868513   162A      1.879515   163A      1.884247  
     164A      1.888536   165A      1.895928   166A      1.912415  
     167A      1.919254   168A      1.928993   169A      1.931674  
     170A      1.940668   171A      1.946272   172A      1.957826  
     173A      1.974641   174A      1.979839   175A      1.983033  
     176A      2.005087   177A      2.028017   178A      2.029891  
     179A      2.035633   180A      2.045392   181A      2.065178  
     182A      2.074303   183A      2.078163   184A      2.091050  
     185A      2.110196   186A      2.117363   187A      2.122913  
     188A      2.139892   189A      2.143488   190A      2.151127  
     191A      2.162616   192A      2.192484   193A      2.203467  
     194A      2.216498   195A      2.240445   196A      2.263041  
     197A      2.272223   198A      2.285487   199A      2.295155  
     200A      2.301863   201A      2.313799   202A      2.348398  
     203A      2.376414   204A      2.408266   205A      2.417347  
     206A      2.433222   207A      2.444917   208A      2.468207  
     209A      2.472781   210A      2.502999   211A      2.527291  
     212A      2.541151   213A      2.560638   214A      2.625009  
     215A      2.664523   216A      2.677961   217A      2.708935  
     218A      2.727358   219A      2.745845   220A      2.762925  
     221A      2.770071   222A      2.773148   223A      2.789916  
     224A      2.806312   225A      2.830844   226A      2.836903  
     227A      2.912150   228A      2.947469   229A      2.955455  
     230A      3.005384   231A      3.015474   232A      3.038219  
     233A      3.059538   234A      3.071155   235A      3.181879  
     236A      3.198654   237A      3.278892   238A      3.914874  

    Final Occupation by Irrep:
              A 
    DOCC [    43 ]

  @DF-RHF Final Energy:  -462.59728993237638

   => Energetics <=

    Nuclear Repulsion Energy =            651.1771066823625915
    One-Electron Energy =               -1916.7004626750938314
    Two-Electron Energy =                 802.9260660603548558
    Total Energy =                       -462.5972899323763841

Computation Completed


Properties will be evaluated at   0.000000,   0.000000,   0.000000 [a0]

Properties computed using the SCF density matrix

  Nuclear Dipole Moment: [e a0]
     X:     7.4756      Y:     0.4876      Z:    -2.0603

  Electronic Dipole Moment: [e a0]
     X:    -7.3468      Y:    -0.5119      Z:     1.9616

  Dipole Moment: [e a0]
     X:     0.1288      Y:    -0.0243      Z:    -0.0986     Total:     0.1640

  Dipole Moment: [D]
     X:     0.3274      Y:    -0.0617      Z:    -0.2507     Total:     0.4169


*** tstop() called on skystd27.palmetto.clemson.edu at Sat Dec 11 17:32:42 2021
Module time:
	user time   =      27.64 seconds =       0.46 minutes
	system time =       0.59 seconds =       0.01 minutes
	total time  =         29 seconds =       0.48 minutes
Total time:
	user time   =      27.64 seconds =       0.46 minutes
	system time =       0.59 seconds =       0.01 minutes
	total time  =         29 seconds =       0.48 minutes

*** tstart() called on skystd27.palmetto.clemson.edu
*** at Sat Dec 11 17:32:42 2021


  //>>>>>>>>>>>>>>>>>>>>>>>>>>>>>>>>>>>//
  //               DFMP2               //
  //<<<<<<<<<<<<<<<<<<<<<<<<<<<<<<<<<<<//

   => Loading Basis Set <=

    Name: (CC-PVDZ AUX)
    Role: RIFIT
    Keyword: DF_BASIS_MP2
    atoms 1-8, 14-16, 21     entry C          line   159 file /home/maxbuskirk/.conda/envs/psifour/share/psi4/basis/cc-pvdz-ri.gbs 
    atoms 9-13, 17-20, 22-26 entry H          line    19 file /home/maxbuskirk/.conda/envs/psifour/share/psi4/basis/cc-pvdz-ri.gbs 

	 --------------------------------------------------------
	                          DF-MP2                         
	      2nd-Order Density-Fitted Moller-Plesset Theory     
	              RMP2 Wavefunction,   1 Threads             
	                                                         
	        Rob Parrish, Justin Turney, Andy Simmonett,      
	           Ed Hohenstein, and C. David Sherrill          
	 --------------------------------------------------------

   => Auxiliary Basis Set <=

  Basis Set: (CC-PVDZ AUX)
    Blend: CC-PVDZ-RI
    Number of shells: 300
    Number of basis functions: 868
    Number of Cartesian functions: 1002
    Spherical Harmonics?: true
    Max angular momentum: 3

	 --------------------------------------------------------
	                 NBF =   238, NAUX =   868
	 --------------------------------------------------------
	   CLASS    FOCC     OCC    AOCC    AVIR     VIR    FVIR
	   PAIRS       0      43      43     195     195       0
	 --------------------------------------------------------


         ------------------------------------------------------------
                                     CPHF                           
                                  Rob Parrish                       
         ------------------------------------------------------------

  ==> Geometry <==

    Molecular point group: c1
    Full point group: C1

    Geometry (in Angstrom), charge = 0, multiplicity = 1:

       Center              X                  Y                   Z               Mass       
    ------------   -----------------  -----------------  -----------------  -----------------
         C            1.395102899955     1.576301044008     0.681538013955    12.000000000000
         C            0.789134899955     0.349862044008     0.016584013955    12.000000000000
         C           -0.631991100045    -0.006707955992     0.174081013955    12.000000000000
         C           -1.043135100045    -1.351723955992     0.314662013955    12.000000000000
         C           -2.399105100045    -1.677325955992     0.470061013955    12.000000000000
         C           -3.370943100045    -0.663962955992     0.499307013955    12.000000000000
         C           -2.974468100045     0.678818044008     0.382268013955    12.000000000000
         C           -1.619036100045     1.003759044008     0.228616013955    12.000000000000
         H           -1.320266100045     2.052588044008     0.136098013955     1.007825032230
         H           -3.723702100045     1.475875044008     0.412957013955     1.007825032230
         H           -4.427892100045    -0.917427955992     0.623466013955     1.007825032230
         H           -2.695994100045    -2.724736955992     0.581922013955     1.007825032230
         H           -0.286545100045    -2.141543955992     0.333719013955     1.007825032230
         C            1.714162899955    -0.272517955992    -0.769816986045    12.000000000000
         C            3.048922899955     0.441328044008    -0.683783986045    12.000000000000
         C            2.906392899955     1.295335044008     0.588945013955    12.000000000000
         H            3.207407899955     0.689465044008     1.460079013955     1.007825032230
         H            3.522455899955     2.208187044008     0.577812013955     1.007825032230
         H            3.904959899955    -0.254991955992    -0.647436986045     1.007825032230
         H            3.190066899955     1.073830044008    -1.583405986045     1.007825032230
         C            1.515240899955    -1.416847955992    -1.717884986045    12.000000000000
         H            0.450791899955    -1.647742955992    -1.870473986045     1.007825032230
         H            1.963918899955    -1.173254955992    -2.696963986045     1.007825032230
         H            2.020702899955    -2.330160955992    -1.355748986045     1.007825032230
         H            1.041100899955     1.720681044008     1.715862013955     1.007825032230
         H            1.127249899955     2.489365044008     0.114398013955     1.007825032230

  Nuclear repulsion =  651.177106682362592
  Reference energy  = -462.597289932376384

  ==> Basis Set <==

  Basis Set: CC-PVDZ
    Blend: CC-PVDZ
    Number of shells: 114
    Number of basis functions: 238
    Number of Cartesian functions: 250
    Spherical Harmonics?: true
    Max angular momentum: 2

  ==> CGRSolver (by Rob Parrish) <==

   Number of roots    =         1
   Preconditioning    =    JACOBI
   Convergence cutoff =     1E-06
   Maximum iterations =       100

  ==> CPHFRHamiltonian (by Rob Parrish) <== 

  ==> DiskDFJK: Density-Fitted J/K Matrices <==

    J tasked:                  Yes
    K tasked:                  Yes
    wK tasked:                  No
    OpenMP threads:              1
    Integrals threads:           1
    Memory [MiB]:              375
    Algorithm:                Core
    Integral Cache:           NONE
    Schwarz Cutoff:          1E-12
    Fitting Condition:       1E-10

   => Auxiliary Basis Set <=

  Basis Set: (CC-PVDZ AUX)
    Blend: CC-PVDZ-JKFIT
    Number of shells: 414
    Number of basis functions: 1162
    Number of Cartesian functions: 1322
    Spherical Harmonics?: true
    Max angular momentum: 3

  ==> CPHF Iterations <==

  => Iterations <=

             Iter  Converged  Remaining    Residual
  CGR           1          0          1   6.994E-02
  CGR           2          0          1   1.384E-02
  CGR           3          0          1   6.146E-03
  CGR           4          0          1   2.643E-03
  CGR           5          0          1   1.478E-03
  CGR           6          0          1   6.000E-04
  CGR           7          0          1   2.050E-04
  CGR           8          0          1   6.726E-05
  CGR           9          0          1   2.681E-05
  CGR          10          0          1   1.034E-05
  CGR          11          0          1   4.157E-06
  CGR          12          0          1   1.186E-06
  CGR          13          1          0   4.437E-07

    CGRSolver converged.

  ==> DFCorrGrad: Density-Fitted Correlated Gradients <==

    OpenMP threads:              1
    Integrals threads:           1
    Memory [GiB]:            0.366
    Schwarz Cutoff:          0E+00
    Fitting Condition:       1E-10

   => Auxiliary Basis Set <=

  Basis Set: (CC-PVDZ AUX)
    Blend: CC-PVDZ-JKFIT
    Number of shells: 414
    Number of basis functions: 1162
    Number of Cartesian functions: 1322
    Spherical Harmonics?: true
    Max angular momentum: 3

	-----------------------------------------------------------
	 ==================> DF-MP2 Energies <==================== 
	-----------------------------------------------------------
	 Reference Energy          =    -462.5972899323763841 [Eh]
	 Singles Energy            =      -0.0000000000000000 [Eh]
	 Same-Spin Energy          =      -0.4257493759283900 [Eh]
	 Opposite-Spin Energy      =      -1.2192287091334695 [Eh]
	 Correlation Energy        =      -1.6449780850618594 [Eh]
	 Total Energy              =    -464.2422680174382208 [Eh]
	-----------------------------------------------------------
	 ================> DF-SCS-MP2 Energies <================== 
	-----------------------------------------------------------
	 SCS Same-Spin Scale       =       0.3333333333333333 [-]
	 SCS Opposite-Spin Scale   =       1.2000000000000000 [-]
	 SCS Same-Spin Energy      =      -0.1419164586427966 [Eh]
	 SCS Opposite-Spin Energy  =      -1.4630744509601634 [Eh]
	 SCS Correlation Energy    =      -1.6049909096029600 [Eh]
	 SCS Total Energy          =    -464.2022808419793591 [Eh]
	-----------------------------------------------------------


  -Total Gradient:
     Atom            X                  Y                   Z
    ------   -----------------  -----------------  -----------------
       1       -0.000007226676    -0.000008842769    -0.000013475018
       2        0.000015107748     0.000020215279     0.000013303841
       3       -0.000008305230    -0.000007192134    -0.000011437884
       4        0.000003204747    -0.000000826732     0.000002196002
       5       -0.000001339019    -0.000000145860    -0.000000504429
       6        0.000002354364    -0.000000358615     0.000000338753
       7       -0.000001048629     0.000002143610    -0.000000391584
       8       -0.000000627054     0.000001002138    -0.000000848018
       9        0.000001986347    -0.000000031769     0.000000067424
      10       -0.000001056079    -0.000000490602     0.000000007294
      11       -0.000000063232    -0.000000154194    -0.000000227752
      12       -0.000000833517    -0.000000042966     0.000000095879
      13       -0.000000202041     0.000000574860     0.000000943824
      14       -0.000020423323    -0.000088731629    -0.000067063885
      15       -0.000002152693     0.000017068434     0.000010102394
      16        0.000011847964    -0.000004900406    -0.000009050277
      17       -0.000001739318     0.000000537739     0.000001300960
      18       -0.000001086843     0.000000333506     0.000001388962
      19       -0.000001875601     0.000001634269    -0.000001435734
      20       -0.000002978435     0.000002249212     0.000000402390
      21       -0.000015767762     0.000050708009     0.000066547728
      22       -0.000037105004     0.000043375936    -0.000010971594
      23        0.000001802894     0.000074770073    -0.000058842542
      24        0.000065358252    -0.000105196194     0.000074893064
      25        0.000002523353     0.000000571088     0.000001743185
      26       -0.000000355210     0.000001729718     0.000000917017


*** tstop() called on skystd27.palmetto.clemson.edu at Sat Dec 11 17:34:00 2021
Module time:
	user time   =      76.21 seconds =       1.27 minutes
	system time =       2.10 seconds =       0.03 minutes
	total time  =         78 seconds =       1.30 minutes
Total time:
	user time   =     103.85 seconds =       1.73 minutes
	system time =       2.69 seconds =       0.04 minutes
	total time  =        107 seconds =       1.78 minutes

			-----------------------------------------
			 OPTKING 2.0: for geometry optimizations 
			  - R.A. King,  Bethel University        
			-----------------------------------------

	Internal coordinates to be generated automatically.
	Detected frag 1 with atoms:  1 2 3 4 5 6 7 8 9 10 11 12 13 14 15 16 17 18 19 20
	 21 22 23 24 25 26
	---Fragment 1 Bond Connectivity---
	 1 : 2 16 25 26
	 2 : 1 3 14
	 3 : 2 4 8
	 4 : 3 5 13
	 5 : 4 6 12
	 6 : 5 7 11
	 7 : 6 8 10
	 8 : 3 7 9
	 9 : 8
	 10 : 7
	 11 : 6
	 12 : 5
	 13 : 4
	 14 : 2 15 21
	 15 : 14 16 19 20
	 16 : 1 15 17 18
	 17 : 16
	 18 : 16
	 19 : 15
	 20 : 15
	 21 : 14 22 23 24
	 22 : 21
	 23 : 21
	 24 : 21
	 25 : 1
	 26 : 1

	---Fragment 1 Geometry and Gradient---
	 C           2.6363623977        2.9787772644        1.2879201905
	 C           1.4912488370        0.6611434449        0.0313392444
	 C          -1.1942900928       -0.0126761997        0.3289654400
	 C          -1.9712396509       -2.5543880740        0.5946250285
	 C          -4.5336515853       -3.1696866799        0.8882865786
	 C          -6.3701592436       -1.2547081443        0.9435535089
	 C          -5.6209300780        1.2827801922        0.7223818529
	 C          -3.0595348163        1.8968296891        0.4320216543
	 H          -2.4949413418        3.8788292516        0.2571879726
	 H          -7.0367771419        2.7889996286        0.7803756580
	 H          -8.3675033822       -1.7336875767        1.1781800149
	 H          -5.0946904849       -5.1490066107        1.0996732327
	 H          -0.5414917617       -4.0469315625        0.6306375392
	 C           3.2392984153       -0.5149843011       -1.4547432704
	 C           5.7616292586        0.8339891347       -1.2921644626
	 C           5.4922865939        2.4478284739        1.1129447793
	 H           6.0611225035        1.3029001063        2.7591494579
	 H           6.6564769399        4.1728687470        1.0919064584
	 H           7.3793047418       -0.4818649610       -1.2234785871
	 H           6.0283527628        2.0292446885       -2.9922036590
	 C           2.8633903150       -2.6774545982       -3.2463321387
	 H           0.8518732305       -3.1137829120       -3.5346835584
	 H           3.7112688535       -2.2171305422       -5.0965233038
	 H           3.8185750618       -4.4033660351       -2.5619942785
	 H           1.9673955699        3.2516159224        3.2425092755
	 H           2.1301935859        4.7042181595        0.2161809157
	            -0.0000072267       -0.0000088428       -0.0000134750
	             0.0000151077        0.0000202153        0.0000133038
	            -0.0000083052       -0.0000071921       -0.0000114379
	             0.0000032047       -0.0000008267        0.0000021960
	            -0.0000013390       -0.0000001459       -0.0000005044
	             0.0000023544       -0.0000003586        0.0000003388
	            -0.0000010486        0.0000021436       -0.0000003916
	            -0.0000006271        0.0000010021       -0.0000008480
	             0.0000019863       -0.0000000318        0.0000000674
	            -0.0000010561       -0.0000004906        0.0000000073
	            -0.0000000632       -0.0000001542       -0.0000002278
	            -0.0000008335       -0.0000000430        0.0000000959
	            -0.0000002020        0.0000005749        0.0000009438
	            -0.0000204233       -0.0000887316       -0.0000670639
	            -0.0000021527        0.0000170684        0.0000101024
	             0.0000118480       -0.0000049004       -0.0000090503
	            -0.0000017393        0.0000005377        0.0000013010
	            -0.0000010868        0.0000003335        0.0000013890
	            -0.0000018756        0.0000016343       -0.0000014357
	            -0.0000029784        0.0000022492        0.0000004024
	            -0.0000157678        0.0000507080        0.0000665477
	            -0.0000371050        0.0000433759       -0.0000109716
	             0.0000018029        0.0000747701       -0.0000588425
	             0.0000653583       -0.0001051962        0.0000748931
	             0.0000025234        0.0000005711        0.0000017432
	            -0.0000003552        0.0000017297        0.0000009170

	Previous optimization step data not found.  Starting new optimization.

	---Fragment 1 Intrafragment Coordinates---
	 - Coordinate -           - BOHR/RAD -       - ANG/DEG -
	 R(1,2)           =         2.874319	       1.521024
	 R(1,16)          =         2.910125	       1.539972
	 R(1,25)          =         2.083837	       1.102719
	 R(1,26)          =         2.093318	       1.107736
	 R(2,3)           =         2.784732	       1.473617
	 R(2,14)          =         2.578254	       1.364353
	 R(3,4)           =         2.671053	       1.413460
	 R(3,8)           =         2.671324	       1.413604
	 R(4,5)           =         2.651563	       1.403147
	 R(4,13)          =         2.067163	       1.093895
	 R(5,6)           =         2.653857	       1.404361
	 R(5,12)          =         2.068129	       1.094407
	 R(6,7)           =         2.655016	       1.404974
	 R(6,11)          =         2.067330	       1.093984
	 R(7,8)           =         2.649927	       1.402281
	 R(7,10)          =         2.068014	       1.094346
	 R(8,9)           =         2.068249	       1.094470
	 R(14,15)         =         2.865016	       1.516101
	 R(14,21)         =         2.833262	       1.499298
	 R(15,16)         =         2.908878	       1.539312
	 R(15,19)         =         2.086400	       1.104075
	 R(15,20)         =         2.095211	       1.108738
	 R(16,17)         =         2.084328	       1.102979
	 R(16,18)         =         2.081237	       1.101343
	 R(21,22)         =         2.078396	       1.099840
	 R(21,23)         =         2.086625	       1.104194
	 R(21,24)         =         2.087934	       1.104887
	 B(1,2,3)         =         2.132448	     122.180296
	 B(1,2,14)        =         1.928043	     110.468727
	 B(1,16,15)       =         1.815021	     103.993068
	 B(1,16,17)       =         1.897117	     108.696781
	 B(1,16,18)       =         1.980503	     113.474479
	 B(2,1,16)        =         1.790127	     102.566700
	 B(2,1,25)        =         1.968972	     112.813790
	 B(2,1,26)        =         1.922464	     110.149081
	 B(2,3,4)         =         2.119286	     121.426120
	 B(2,3,8)         =         2.099640	     120.300495
	 B(2,14,15)       =         1.927736	     110.451137
	 B(2,14,21)       =         2.242975	     128.512983
	 B(3,2,14)        =         2.220651	     127.233923
	 B(3,4,5)         =         2.109388	     120.859024
	 B(3,4,13)        =         2.080147	     119.183628
	 B(3,8,7)         =         2.110063	     120.897728
	 B(3,8,9)         =         2.084192	     119.415378
	 B(4,3,8)         =         2.063785	     118.246186
	 B(4,5,6)         =         2.098568	     120.239106
	 B(4,5,12)        =         2.089281	     119.706964
	 B(5,4,13)        =         2.093145	     119.928351
	 B(5,6,7)         =         2.085899	     119.513219
	 B(5,6,11)        =         2.098751	     120.249570
	 B(6,5,12)        =         2.095250	     120.048967
	 B(6,7,8)         =         2.098279	     120.222516
	 B(6,7,10)        =         2.095045	     120.037222
	 B(7,6,11)        =         2.098475	     120.233738
	 B(7,8,9)         =         2.088843	     119.681864
	 B(8,7,10)        =         2.089860	     119.740132
	 B(14,15,16)      =         1.799406	     103.098356
	 B(14,15,19)      =         1.968736	     112.800279
	 B(14,15,20)      =         1.912013	     109.550255
	 B(14,21,22)      =         1.956670	     112.108928
	 B(14,21,23)      =         1.916015	     109.779573
	 B(14,21,24)      =         1.942233	     111.281772
	 B(15,14,21)      =         2.108376	     120.801049
	 B(15,16,17)      =         1.899693	     108.844371
	 B(15,16,18)      =         1.981979	     113.559042
	 B(16,1,25)       =         1.977226	     113.286730
	 B(16,1,26)       =         1.935744	     110.909973
	 B(16,15,19)      =         1.976291	     113.233108
	 B(16,15,20)      =         1.945680	     111.479279
	 B(17,16,18)      =         1.886638	     108.096378
	 B(19,15,20)      =         1.862719	     106.725958
	 B(22,21,23)      =         1.892897	     108.455036
	 B(22,21,24)      =         1.890932	     108.342411
	 B(23,21,24)      =         1.861979	     106.683530
	 B(25,1,26)       =         1.869917	     107.138345
	 D(1,2,3,4)       =        -2.462500	    -141.090867
	 D(1,2,3,8)       =         0.645400	      36.978697
	 D(1,2,14,15)     =         0.031048	       1.778925
	 D(1,2,14,21)     =        -3.012567	    -172.607364
	 D(1,16,15,14)    =        -0.499803	     -28.636594
	 D(1,16,15,19)    =        -2.632586	    -150.836039
	 D(1,16,15,20)    =         1.549857	      88.800282
	 D(2,1,16,15)     =         0.514363	      29.470838
	 D(2,1,16,17)     =        -1.507311	     -86.362554
	 D(2,1,16,18)     =         2.676299	     153.340666
	 D(2,3,4,5)       =         3.136447	     179.705195
	 D(2,3,4,13)      =         0.029066	       1.665353
	 D(2,3,8,7)       =        -3.138209	    -179.806114
	 D(2,3,8,9)       =         0.017671	       1.012458
	 D(2,14,15,16)    =         0.300808	      17.235016
	 D(2,14,15,19)    =         2.438658	     139.724821
	 D(2,14,15,20)    =        -1.772435	    -101.553028
	 D(2,14,21,22)    =         0.167316	       9.586503
	 D(2,14,21,23)    =         2.272366	     130.196980
	 D(2,14,21,24)    =        -1.953574	    -111.931530
	 D(3,2,1,16)      =         2.856778	     163.681328
	 D(3,2,1,25)      =         0.723627	      41.460773
	 D(3,2,1,26)      =        -1.364858	     -78.200577
	 D(3,2,14,15)     =         3.104559	     177.878117
	 D(3,2,14,21)     =         0.060944	       3.491829
	 D(3,4,5,6)       =        -0.009298	      -0.532741
	 D(3,4,5,12)      =        -3.136753	    -179.722706
	 D(3,8,7,6)       =         0.012040	       0.689867
	 D(3,8,7,10)      =        -3.131840	    -179.441216
	 D(4,3,2,14)      =         0.754466	      43.227732
	 D(4,3,8,7)       =        -0.029252	      -1.676026
	 D(4,3,8,9)       =         3.126627	     179.142545
	 D(4,5,6,7)       =        -0.008597	      -0.492558
	 D(4,5,6,11)      =        -3.138387	    -179.816317
	 D(5,4,3,8)       =         0.027876	       1.597200
	 D(5,6,7,8)       =         0.007241	       0.414863
	 D(5,6,7,10)      =        -3.132057	    -179.453662
	 D(6,5,4,13)      =         3.097830	     177.492594
	 D(6,7,8,9)       =         3.139309	     179.869135
	 D(7,6,5,12)      =         3.118810	     178.694624
	 D(8,3,2,14)      =        -2.420819	    -138.702704
	 D(8,3,4,13)      =        -3.079505	    -176.442642
	 D(8,7,6,11)      =         3.137033	     179.738730
	 D(9,8,7,10)      =        -0.004572	      -0.261949
	 D(10,7,6,11)     =        -0.002265	      -0.129795
	 D(11,6,5,12)     =        -0.010980	      -0.629134
	 D(12,5,4,13)     =        -0.029625	      -1.697371
	 D(14,2,1,16)     =        -0.348852	     -19.987768
	 D(14,2,1,25)     =        -2.482003	    -142.208323
	 D(14,2,1,26)     =         1.712697	      98.130327
	 D(14,15,16,17)   =         1.520059	      87.092954
	 D(14,15,16,18)   =        -2.660781	    -152.451540
	 D(15,14,21,22)   =        -2.867367	    -164.288012
	 D(15,14,21,23)   =        -0.762317	     -43.677535
	 D(15,14,21,24)   =         1.294929	      74.193955
	 D(15,16,1,25)    =         2.641906	     151.370088
	 D(15,16,1,26)    =        -1.537774	     -88.107935
	 D(16,15,14,21)   =        -2.930014	    -167.877438
	 D(17,16,1,25)    =         0.620232	      35.536695
	 D(17,16,1,26)    =         2.723738	     156.058672
	 D(17,16,15,19)   =        -0.612724	     -35.106492
	 D(17,16,15,20)   =        -2.713466	    -155.470171
	 D(18,16,1,25)    =        -1.479343	     -84.760085
	 D(18,16,1,26)    =         0.624163	      35.761892
	 D(18,16,15,19)   =         1.489621	      85.349014
	 D(18,16,15,20)   =        -0.611121	     -35.014665
	 D(19,15,14,21)   =        -0.792164	     -45.387633
	 D(20,15,14,21)   =         1.279929	      73.334518
	 R(4,21)          =         6.175900	       3.268146

	Current energy   :      -464.2422680174

	Generating empirical Hessian (Schlegel '84) for each fragment.
	Taking RFO optimization step.
	Going to follow RFO solution 1.
	Using RFO vector 1.
	Norm of target step-size    0.00247
	Projected energy change by RFO approximation:         0.0000000288

	Back-transformation to cartesian coordinates...
	Successfully converged to displaced geometry.

	--- Internal Coordinate Step in ANG or DEG, aJ/ANG or AJ/DEG ---
	 ---------------------------------------------------------------------------
	   Coordinate                Previous        Force       Change         New 
	   ----------                --------       ------       ------       ------
	    1 R(1,2)          =      1.521024     0.000070     0.000012     1.521036
	    2 R(1,16)         =      1.539972    -0.000013    -0.000005     1.539967
	    3 R(1,25)         =      1.102719    -0.000007    -0.000001     1.102718
	    4 R(1,26)         =      1.107736    -0.000009    -0.000002     1.107734
	    5 R(2,3)          =      1.473617    -0.000079    -0.000007     1.473610
	    6 R(2,14)         =      1.364353    -0.000015     0.000003     1.364357
	    7 R(3,4)          =      1.413460    -0.000010     0.000001     1.413462
	    8 R(3,8)          =      1.413604    -0.000007    -0.000000     1.413603
	    9 R(4,5)          =      1.403147    -0.000010    -0.000001     1.403145
	   10 R(4,13)         =      1.093895     0.000004     0.000001     1.093896
	   11 R(5,6)          =      1.404361     0.000004    -0.000000     1.404361
	   12 R(5,12)         =      1.094407    -0.000002    -0.000000     1.094406
	   13 R(6,7)          =      1.404974    -0.000003    -0.000001     1.404973
	   14 R(6,11)         =      1.093984    -0.000001    -0.000000     1.093984
	   15 R(7,8)          =      1.402281    -0.000004    -0.000000     1.402280
	   16 R(7,10)         =      1.094346    -0.000003    -0.000001     1.094345
	   17 R(8,9)          =      1.094470    -0.000004    -0.000001     1.094470
	   18 R(14,15)        =      1.516101    -0.000059    -0.000010     1.516091
	   19 R(14,21)        =      1.499298     0.000778     0.000157     1.499455
	   20 R(15,16)        =      1.539312     0.000097     0.000025     1.539337
	   21 R(15,19)        =      1.104075     0.000021     0.000004     1.104079
	   22 R(15,20)        =      1.108738    -0.000005    -0.000001     1.108737
	   23 R(16,17)        =      1.102979    -0.000002    -0.000000     1.102979
	   24 R(16,18)        =      1.101343     0.000003     0.000001     1.101344
	   25 R(21,22)        =      1.099840    -0.000233    -0.000044     1.099795
	   26 R(21,23)        =      1.104194    -0.000572    -0.000111     1.104084
	   27 R(21,24)        =      1.104887    -0.001165    -0.000226     1.104661
	   28 B(1,2,3)        =    122.180296    -0.000000    -0.002289   122.178007
	   29 B(1,2,14)       =    110.468727    -0.000000    -0.001262   110.467465
	   30 B(1,16,15)      =    103.993068     0.000000     0.002994   103.996062
	   31 B(1,16,17)      =    108.696781    -0.000000     0.000007   108.696788
	   32 B(1,16,18)      =    113.474479     0.000000     0.000455   113.474934
	   33 B(2,1,16)       =    102.566700    -0.000000    -0.000462   102.566239
	   34 B(2,1,25)       =    112.813790     0.000000    -0.000558   112.813233
	   35 B(2,1,26)       =    110.149081     0.000000    -0.000930   110.148150
	   36 B(2,3,4)        =    121.426120    -0.000001     0.000192   121.426312
	   37 B(2,3,8)        =    120.300495     0.000001     0.000510   120.301005
	   38 B(2,14,15)      =    110.451137     0.000001     0.003433   110.454569
	   39 B(2,14,21)      =    128.512983    -0.000000     0.002604   128.515587
	   40 B(3,2,14)       =    127.233923     0.000000     0.004637   127.238559
	   41 B(3,4,5)        =    120.859024     0.000000     0.000597   120.859620
	   42 B(3,4,13)       =    119.183628    -0.000000    -0.000242   119.183386
	   43 B(3,8,7)        =    120.897728    -0.000000     0.000165   120.897892
	   44 B(3,8,9)        =    119.415378     0.000000     0.000632   119.416010
	   45 B(4,3,8)        =    118.246186    -0.000000    -0.000711   118.245475
	   46 B(4,5,6)        =    120.239106     0.000000     0.000052   120.239158
	   47 B(4,5,12)       =    119.706964    -0.000000    -0.000325   119.706639
	   48 B(5,4,13)       =    119.928351    -0.000000    -0.000340   119.928011
	   49 B(5,6,7)        =    119.513219    -0.000000    -0.000567   119.512652
	   50 B(5,6,11)       =    120.249570     0.000000     0.000337   120.249907
	   51 B(6,5,12)       =    120.048967     0.000000     0.000276   120.049242
	   52 B(6,7,8)        =    120.222516     0.000000     0.000503   120.223019
	   53 B(6,7,10)       =    120.037222     0.000000     0.000152   120.037375
	   54 B(7,6,11)       =    120.233738     0.000000     0.000228   120.233967
	   55 B(7,8,9)        =    119.681864    -0.000000    -0.000787   119.681077
	   56 B(8,7,10)       =    119.740132    -0.000000    -0.000655   119.739476
	   57 B(14,15,16)     =    103.098356    -0.000001     0.000043   103.098398
	   58 B(14,15,19)     =    112.800279     0.000000    -0.000464   112.799814
	   59 B(14,15,20)     =    109.550255     0.000000     0.001075   109.551330
	   60 B(14,21,22)     =    112.108928     0.000003     0.018738   112.127666
	   61 B(14,21,23)     =    109.779573     0.000005     0.024832   109.804405
	   62 B(14,21,24)     =    111.281772     0.000001    -0.004724   111.277048
	   63 B(15,14,21)     =    120.801049    -0.000000    -0.002096   120.798953
	   64 B(15,16,17)     =    108.844371    -0.000000    -0.001568   108.842803
	   65 B(15,16,18)     =    113.559042    -0.000000    -0.001279   113.557762
	   66 B(16,1,25)      =    113.286730     0.000000     0.001561   113.288291
	   67 B(16,1,26)      =    110.909973     0.000000     0.000002   110.909976
	   68 B(16,15,19)     =    113.233108     0.000000    -0.001500   113.231608
	   69 B(16,15,20)     =    111.479279     0.000000     0.001701   111.480980
	   70 B(17,16,18)     =    108.096378     0.000000    -0.000587   108.095791
	   71 B(19,15,20)     =    106.725958    -0.000000    -0.000693   106.725265
	   72 B(22,21,23)     =    108.455036    -0.000001     0.009418   108.464454
	   73 B(22,21,24)     =    108.342411    -0.000003    -0.021576   108.320836
	   74 B(23,21,24)     =    106.683530    -0.000004    -0.029181   106.654349
	   75 B(25,1,26)      =    107.138345    -0.000000     0.000299   107.138644
	   76 D(1,2,3,4)      =   -141.090867    -0.000000    -0.003343  -141.094211
	   77 D(1,2,3,8)      =     36.978697    -0.000000    -0.003667    36.975029
	   78 D(1,2,14,15)    =      1.778925     0.000000     0.017389     1.796314
	   79 D(1,2,14,21)    =   -172.607364    -0.000000    -0.029666  -172.637029
	   80 D(1,16,15,14)   =    -28.636594     0.000000     0.012658   -28.623936
	   81 D(1,16,15,19)   =   -150.836039     0.000000     0.014013  -150.822026
	   82 D(1,16,15,20)   =     88.800282     0.000000     0.014735    88.815017
	   83 D(2,1,16,15)    =     29.470838    -0.000000    -0.003093    29.467745
	   84 D(2,1,16,17)    =    -86.362554    -0.000000    -0.002789   -86.365343
	   85 D(2,1,16,18)    =    153.340666    -0.000000    -0.002345   153.338321
	   86 D(2,3,4,5)      =    179.705195     0.000000    -0.001751   179.703444
	   87 D(2,3,4,13)     =      1.665353     0.000000    -0.002235     1.663119
	   88 D(2,3,8,7)      =   -179.806114     0.000000     0.001828  -179.804286
	   89 D(2,3,8,9)      =      1.012458    -0.000000     0.001023     1.013481
	   90 D(2,14,15,16)   =     17.235016    -0.000000    -0.019133    17.215883
	   91 D(2,14,15,19)   =    139.724821    -0.000000    -0.021177   139.703644
	   92 D(2,14,15,20)   =   -101.553028    -0.000000    -0.021619  -101.574646
	   93 D(2,14,21,22)   =      9.586503    -0.000000     0.001889     9.588392
	   94 D(2,14,21,23)   =    130.196980     0.000001     0.043165   130.240145
	   95 D(2,14,21,24)   =   -111.931530     0.000000     0.019869  -111.911661
	   96 D(3,2,1,16)     =    163.681328    -0.000000    -0.025748   163.655580
	   97 D(3,2,1,25)     =     41.460773    -0.000000    -0.027043    41.433730
	   98 D(3,2,1,26)     =    -78.200577    -0.000000    -0.026410   -78.226987
	   99 D(3,2,14,15)    =    177.878117     0.000000     0.035352   177.913470
	  100 D(3,2,14,21)    =      3.491829    -0.000000    -0.011703     3.480127
	  101 D(3,4,5,6)      =     -0.532741     0.000000     0.000620    -0.532121
	  102 D(3,4,5,12)     =   -179.722706     0.000000     0.000301  -179.722404
	  103 D(3,8,7,6)      =      0.689867    -0.000000    -0.000756     0.689112
	  104 D(3,8,7,10)     =   -179.441216    -0.000000    -0.000855  -179.442071
	  105 D(4,3,2,14)     =     43.227732    -0.000000    -0.023310    43.204422
	  106 D(4,3,8,7)      =     -1.676026     0.000000     0.001530    -1.674496
	  107 D(4,3,8,9)      =    179.142545     0.000000     0.000725   179.143271
	  108 D(4,5,6,7)      =     -0.492558     0.000000     0.000176    -0.492382
	  109 D(4,5,6,11)     =   -179.816317     0.000000     0.000339  -179.815977
	  110 D(5,4,3,8)      =      1.597200    -0.000000    -0.001456     1.595744
	  111 D(5,6,7,8)      =      0.414863    -0.000000    -0.000108     0.414755
	  112 D(5,6,7,10)     =   -179.453662    -0.000000    -0.000008  -179.453670
	  113 D(6,5,4,13)     =    177.492594     0.000000     0.001109   177.493703
	  114 D(6,7,8,9)      =    179.869135    -0.000000     0.000063   179.869198
	  115 D(7,6,5,12)     =    178.694624     0.000000     0.000491   178.695114
	  116 D(8,3,2,14)     =   -138.702704    -0.000000    -0.023634  -138.726339
	  117 D(8,3,4,13)     =   -176.442642    -0.000000    -0.001940  -176.444582
	  118 D(8,7,6,11)     =    179.738730    -0.000000    -0.000271   179.738460
	  119 D(9,8,7,10)     =     -0.261949    -0.000000    -0.000037    -0.261985
	  120 D(10,7,6,11)    =     -0.129795    -0.000000    -0.000170    -0.129965
	  121 D(11,6,5,12)    =     -0.629134     0.000000     0.000653    -0.628481
	  122 D(12,5,4,13)    =     -1.697371     0.000000     0.000791    -1.696580
	  123 D(14,2,1,16)    =    -19.987768     0.000000    -0.008538   -19.996306
	  124 D(14,2,1,25)    =   -142.208323     0.000000    -0.009833  -142.218156
	  125 D(14,2,1,26)    =     98.130327     0.000000    -0.009200    98.121127
	  126 D(14,15,16,17)  =     87.092954     0.000000     0.013468    87.106422
	  127 D(14,15,16,18)  =   -152.451540    -0.000000     0.010780  -152.440760
	  128 D(15,14,21,22)  =   -164.288012    -0.000000    -0.049756  -164.337769
	  129 D(15,14,21,23)  =    -43.677535     0.000000    -0.008480   -43.686015
	  130 D(15,14,21,24)  =     74.193955    -0.000000    -0.031776    74.162178
	  131 D(15,16,1,25)   =    151.370088    -0.000000    -0.003239   151.366849
	  132 D(15,16,1,26)   =    -88.107935     0.000000    -0.001761   -88.109696
	  133 D(16,15,14,21)  =   -167.877438     0.000000     0.023992  -167.853446
	  134 D(17,16,1,25)   =     35.536695    -0.000000    -0.002935    35.533761
	  135 D(17,16,1,26)   =    156.058672     0.000000    -0.001457   156.057215
	  136 D(17,16,15,19)  =    -35.106492     0.000000     0.014823   -35.091669
	  137 D(17,16,15,20)  =   -155.470171     0.000000     0.015545  -155.454625
	  138 D(18,16,1,25)   =    -84.760085    -0.000000    -0.002490   -84.762575
	  139 D(18,16,1,26)   =     35.761892     0.000000    -0.001012    35.760880
	  140 D(18,16,15,19)  =     85.349014    -0.000000     0.012135    85.361149
	  141 D(18,16,15,20)  =    -35.014665    -0.000000     0.012857   -35.001807
	  142 D(19,15,14,21)  =    -45.387633     0.000000     0.021948   -45.365685
	  143 D(20,15,14,21)  =     73.334518     0.000000     0.021506    73.356024
	  144 R(4,21)         =      3.268146     0.000036    -0.000079     3.268066
	 ---------------------------------------------------------------------------
	Successfully symmetrized geometry.

  ==> Convergence Check <==

  Measures of convergence in internal coordinates in au.
  Criteria marked as inactive (o), active & met (*), and active & unmet ( ).
  --------------------------------------------------------------------------------------------- ~
   Step     Total Energy     Delta E     MAX Force     RMS Force      MAX Disp      RMS Disp    ~
  --------------------------------------------------------------------------------------------- ~
    Convergence Criteria    1.00e-06 *    3.00e-04 *             o    1.20e-03 *             o  ~
  --------------------------------------------------------------------------------------------- ~
      1    -464.24226802   -4.64e+02      1.41e-04 *    1.85e-05 o    8.68e-04 *    2.06e-04 o  ~
  ---------------------------------------------------------------------------------------------


  **** Optimization is complete! (in 1 steps) ****

  ==> Optimization Summary <==

  Measures of convergence in internal coordinates in au.
  --------------------------------------------------------------------------------------------------------------- ~
   Step         Total Energy             Delta E       MAX Force       RMS Force        MAX Disp        RMS Disp  ~
  --------------------------------------------------------------------------------------------------------------- ~
      1    -464.242268017438   -464.242268017438      0.00014140      0.00001847      0.00086841      0.00020570  ~
  --------------------------------------------------------------------------------------------------------------- ~

	Writing optimization data to binary file.
	Final energy is   -464.2422680174382
	Final (previous) structure:
	Cartesian Geometry (in Angstrom)
	    C     1.3951028945   1.5763010378   0.6815380113
	    C     0.7891348969   0.3498620426   0.0165840139
	    C    -0.6319910976  -0.0067079560   0.1740810133
	    C    -1.0431350959  -1.3517239507   0.3146620127
	    C    -2.3991050906  -1.6773259494   0.4700610121
	    C    -3.3709430868  -0.6639629534   0.4993070120
	    C    -2.9744680884   0.6788180413   0.3822680125
	    C    -1.6190360937   1.0037590401   0.2286160131
	    H    -1.3202660949   2.0525880359   0.1360980134
	    H    -3.7237020854   1.4758750382   0.4129570123
	    H    -4.4278920826  -0.9174279524   0.6234660115
	    H    -2.6959940894  -2.7247369453   0.5819220117
	    H    -0.2865450989  -2.1415439476   0.3337190126
	    C     1.7141628932  -0.2725179549  -0.7698169830
	    C     3.0489228880   0.4413280423  -0.6837839834
	    C     2.9063928885   1.2953350389   0.5889450116
	    H     3.2074078873   0.6894650413   1.4600790082
	    H     3.5224558861   2.2081870353   0.5778120117
	    H     3.9049598846  -0.2549919550  -0.6474369835
	    H     3.1900668874   1.0738300398  -1.5834059798
	    C     1.5152408940  -1.4168479504  -1.7178849793
	    H     0.4507918982  -1.6477429495  -1.8704739787
	    H     1.9639188922  -1.1732549514  -2.6969639754
	    H     2.0207028920  -2.3301609468  -1.3557489807
	    H     1.0411008959   1.7206810372   1.7158620072
	    H     1.1272498955   2.4893650342   0.1143980135
	Saving final (previous) structure.
	Cleaning optimization helper files.
			--------------------------
			 OPTKING Finished Execution 
			--------------------------

    Final optimized geometry and variables:
    Molecular point group: c1
    Full point group: C1

    Geometry (in Angstrom), charge = 0, multiplicity = 1:

    C            1.395102899955     1.576301044008     0.681538013955
    C            0.789134899955     0.349862044008     0.016584013955
    C           -0.631991100045    -0.006707955992     0.174081013955
    C           -1.043135100045    -1.351723955992     0.314662013955
    C           -2.399105100045    -1.677325955992     0.470061013955
    C           -3.370943100045    -0.663962955992     0.499307013955
    C           -2.974468100045     0.678818044008     0.382268013955
    C           -1.619036100045     1.003759044008     0.228616013955
    H           -1.320266100045     2.052588044008     0.136098013955
    H           -3.723702100045     1.475875044008     0.412957013955
    H           -4.427892100045    -0.917427955992     0.623466013955
    H           -2.695994100045    -2.724736955992     0.581922013955
    H           -0.286545100045    -2.141543955992     0.333719013955
    C            1.714162899955    -0.272517955992    -0.769816986045
    C            3.048922899955     0.441328044008    -0.683783986045
    C            2.906392899955     1.295335044008     0.588945013955
    H            3.207407899955     0.689465044008     1.460079013955
    H            3.522455899955     2.208187044008     0.577812013955
    H            3.904959899955    -0.254991955992    -0.647436986045
    H            3.190066899955     1.073830044008    -1.583405986045
    C            1.515240899955    -1.416847955992    -1.717884986045
    H            0.450791899955    -1.647742955992    -1.870473986045
    H            1.963918899955    -1.173254955992    -2.696963986045
    H            2.020702899955    -2.330160955992    -1.355748986045
    H            1.041100899955     1.720681044008     1.715862013955
    H            1.127249899955     2.489365044008     0.114398013955

	Removing binary optimization data file.
	Cleaning optimization helper files.


Properties will be evaluated at   0.000000,   0.000000,   0.000000 [a0]
OEProp: No title given, name of density matrix used for the following properties is 'DF-MP2 relaxed density'
  Mulliken Charges: (a.u.)
   Center  Symbol    Alpha    Beta     Spin     Total
       1     C     3.00217  3.00217  0.00000 -0.00435
       2     C     3.03027  3.03027  0.00000 -0.06053
       3     C     3.04366  3.04366  0.00000 -0.08732
       4     C     3.00405  3.00405  0.00000 -0.00810
       5     C     3.00365  3.00365  0.00000 -0.00729
       6     C     3.00890  3.00890  0.00000 -0.01781
       7     C     3.00360  3.00360  0.00000 -0.00719
       8     C     3.00433  3.00433  0.00000 -0.00867
       9     H     0.49651  0.49651  0.00000  0.00699
      10     H     0.49113  0.49113  0.00000  0.01773
      11     H     0.49110  0.49110  0.00000  0.01779
      12     H     0.49078  0.49078  0.00000  0.01844
      13     H     0.49491  0.49491  0.00000  0.01017
      14     C     3.10572  3.10572  0.00000 -0.21145
      15     C     3.00343  3.00343  0.00000 -0.00687
      16     C     3.02716  3.02716  0.00000 -0.05433
      17     H     0.47870  0.47870  0.00000  0.04259
      18     H     0.48487  0.48487  0.00000  0.03026
      19     H     0.48176  0.48176  0.00000  0.03648
      20     H     0.47670  0.47670  0.00000  0.04661
      21     C     3.00285  3.00285  0.00000 -0.00570
      22     H     0.47213  0.47213  0.00000  0.05573
      23     H     0.47551  0.47551  0.00000  0.04898
      24     H     0.47246  0.47246  0.00000  0.05509
      25     H     0.47865  0.47865  0.00000  0.04271
      26     H     0.47499  0.47499  0.00000  0.05001

   Total alpha = 43.00000, Total beta = 43.00000, Total charge = -0.00000

    Molecular point group: c1
    Full point group: C1

    Geometry (in Angstrom), charge = 0, multiplicity = 1:

       Center              X                  Y                   Z               Mass       
    ------------   -----------------  -----------------  -----------------  -----------------
         C            1.395102899955     1.576301044008     0.681538013955    12.000000000000
         C            0.789134899955     0.349862044008     0.016584013955    12.000000000000
         C           -0.631991100045    -0.006707955992     0.174081013955    12.000000000000
         C           -1.043135100045    -1.351723955992     0.314662013955    12.000000000000
         C           -2.399105100045    -1.677325955992     0.470061013955    12.000000000000
         C           -3.370943100045    -0.663962955992     0.499307013955    12.000000000000
         C           -2.974468100045     0.678818044008     0.382268013955    12.000000000000
         C           -1.619036100045     1.003759044008     0.228616013955    12.000000000000
         H           -1.320266100045     2.052588044008     0.136098013955     1.007825032230
         H           -3.723702100045     1.475875044008     0.412957013955     1.007825032230
         H           -4.427892100045    -0.917427955992     0.623466013955     1.007825032230
         H           -2.695994100045    -2.724736955992     0.581922013955     1.007825032230
         H           -0.286545100045    -2.141543955992     0.333719013955     1.007825032230
         C            1.714162899955    -0.272517955992    -0.769816986045    12.000000000000
         C            3.048922899955     0.441328044008    -0.683783986045    12.000000000000
         C            2.906392899955     1.295335044008     0.588945013955    12.000000000000
         H            3.207407899955     0.689465044008     1.460079013955     1.007825032230
         H            3.522455899955     2.208187044008     0.577812013955     1.007825032230
         H            3.904959899955    -0.254991955992    -0.647436986045     1.007825032230
         H            3.190066899955     1.073830044008    -1.583405986045     1.007825032230
         C            1.515240899955    -1.416847955992    -1.717884986045    12.000000000000
         H            0.450791899955    -1.647742955992    -1.870473986045     1.007825032230
         H            1.963918899955    -1.173254955992    -2.696963986045     1.007825032230
         H            2.020702899955    -2.330160955992    -1.355748986045     1.007825032230
         H            1.041100899955     1.720681044008     1.715862013955     1.007825032230
         H            1.127249899955     2.489365044008     0.114398013955     1.007825032230



  Variable Map:
  ----------------------------------------------------------------------------
  "CURRENT CORRELATION ENERGY"           =>      -1.644978085062
  "CURRENT DIPOLE X"                     =>       0.327353823145
  "CURRENT DIPOLE Y"                     =>      -0.061736633802
  "CURRENT DIPOLE Z"                     =>      -0.250731143496
  "CURRENT ENERGY"                       =>    -464.242268017438
  "CURRENT REFERENCE ENERGY"             =>    -462.597289932376
  "CUSTOM SCS-MP2 CORRELATION ENERGY"    =>      -1.604990909603
  "CUSTOM SCS-MP2 TOTAL ENERGY"          =>    -464.202280841979
  "HF TOTAL ENERGY"                      =>    -462.597289932376
  "MP2 CORRELATION ENERGY"               =>      -1.644978085062
  "MP2 DOUBLES ENERGY"                   =>      -1.644978085062
  "MP2 OPPOSITE-SPIN CORRELATION ENERGY" =>      -1.219228709133
  "MP2 SAME-SPIN CORRELATION ENERGY"     =>      -0.425749375928
  "MP2 SINGLES ENERGY"                   =>      -0.000000000000
  "MP2 TOTAL ENERGY"                     =>    -464.242268017438
  "NUCLEAR REPULSION ENERGY"             =>     651.177106682363
  "ONE-ELECTRON ENERGY"                  =>   -1916.700462675094
  "OPTIMIZATION ITERATIONS"              =>       1.000000000000
  "PCM POLARIZATION ENERGY"              =>       0.000000000000
  "PE ENERGY"                            =>       0.000000000000
  "SCF DIPOLE X"                         =>       0.327353823145
  "SCF DIPOLE Y"                         =>      -0.061736633802
  "SCF DIPOLE Z"                         =>      -0.250731143496
  "SCF ITERATION ENERGY"                 =>    -462.597289932376
  "SCF ITERATIONS"                       =>      18.000000000000
  "SCF TOTAL ENERGY"                     =>    -462.597289932376
  "SCS-MP2 CORRELATION ENERGY"           =>      -1.604990909603
  "SCS-MP2 TOTAL ENERGY"                 =>    -464.202280841979
  "TWO-ELECTRON ENERGY"                  =>     802.926066060355



    Psi4 stopped on: Saturday, 11 December 2021 05:34PM
    Psi4 wall time for execution: 0:01:47.29

*** Psi4 exiting successfully. Buy a developer a beer!
