
    -----------------------------------------------------------------------
          Psi4: An Open-Source Ab Initio Electronic Structure Package
                               Psi4 1.4 release

                         Git: Rev {HEAD} 9485035 


    D. G. A. Smith, L. A. Burns, A. C. Simmonett, R. M. Parrish,
    M. C. Schieber, R. Galvelis, P. Kraus, H. Kruse, R. Di Remigio,
    A. Alenaizan, A. M. James, S. Lehtola, J. P. Misiewicz, M. Scheurer,
    R. A. Shaw, J. B. Schriber, Y. Xie, Z. L. Glick, D. A. Sirianni,
    J. S. O'Brien, J. M. Waldrop, A. Kumar, E. G. Hohenstein,
    B. P. Pritchard, B. R. Brooks, H. F. Schaefer III, A. Yu. Sokolov,
    K. Patkowski, A. E. DePrince III, U. Bozkaya, R. A. King,
    F. A. Evangelista, J. M. Turney, T. D. Crawford, C. D. Sherrill,
    J. Chem. Phys. 152(18) 184108 (2020). https://doi.org/10.1063/5.0006002

                            Additional Code Authors
    E. T. Seidl, C. L. Janssen, E. F. Valeev, M. L. Leininger,
    J. F. Gonthier, R. M. Richard, H. R. McAlexander, M. Saitow, X. Wang,
    P. Verma, and M. H. Lechner

             Previous Authors, Complete List of Code Contributors,
                       and Citations for Specific Modules
    https://github.com/psi4/psi4/blob/master/codemeta.json
    https://github.com/psi4/psi4/graphs/contributors
    http://psicode.org/psi4manual/master/introduction.html#citing-psifour

    -----------------------------------------------------------------------


    Psi4 started on: Tuesday, 23 November 2021 09:56PM

    Process ID: 1601960
    Host:       skystd35.palmetto.clemson.edu
    PSIDATADIR: /home/maxbuskirk/.conda/envs/psifour/share/psi4
    Memory:     500.0 MiB
    Threads:    1
    
  ==> Input File <==

--------------------------------------------------------------------------
molecule mol {
0 1
 C     0.355130     0.111221    -1.467412
 C    -0.000000    -0.000000     0.000000
 C     0.828100     0.881905     0.953535
 C     2.091555     0.051810     1.254924
 C     2.370953    -0.722993    -0.049363
 C     0.983556    -0.988346    -0.633510
 C    -1.373576    -0.413221     0.414448
 C    -1.542792    -1.321567     1.480545
 C    -2.825059    -1.692334     1.911870
 C    -3.961673    -1.159299     1.279913
 C    -3.805653    -0.253936     0.218219
 C    -2.519836     0.117392    -0.208007
 H    -2.398432     0.829298    -1.030811
 H    -4.686419     0.165723    -0.277661
 O    -5.224199    -1.526822     1.698665
 H    -2.939181    -2.402495     2.736730
 H    -0.656700    -1.746978     1.964470
 H     0.659437    -2.015061    -0.827996
 H    -0.405740    -0.188168    -2.193765
 H     0.996446     0.943276    -1.777222
 H     2.921789    -1.659184     0.134099
 H     2.979683    -0.115336    -0.742780
 H     1.856488    -0.672951     2.054626
 H     2.945544     0.661232     1.596113
 H     0.256631     1.122533     1.863868
 H     1.092347     1.837771     0.466059
 H    -5.873437    -1.081092     1.172715
}

set scf_type df
set basis cc-pVDZ
set reference rhf

mol.update_geometry()
mol.symmetrize(1e-3)

e, wfn = optimize('mp2', return_wfn=True)
oeprop(wfn, "MULLIKEN_CHARGES")
mol.print_out()
print_variables()
--------------------------------------------------------------------------

Scratch directory: /local_scratch/pbs.4067449.pbs02/
gradient() will perform analytic gradient computation.

*** tstart() called on skystd35.palmetto.clemson.edu
*** at Tue Nov 23 21:56:41 2021

   => Loading Basis Set <=

    Name: CC-PVDZ
    Role: ORBITAL
    Keyword: BASIS
    atoms 1-12         entry C          line   138 file /home/maxbuskirk/.conda/envs/psifour/share/psi4/basis/cc-pvdz.gbs 
    atoms 13-14, 16-27 entry H          line    22 file /home/maxbuskirk/.conda/envs/psifour/share/psi4/basis/cc-pvdz.gbs 
    atoms 15           entry O          line   198 file /home/maxbuskirk/.conda/envs/psifour/share/psi4/basis/cc-pvdz.gbs 


         ---------------------------------------------------------
                                   SCF
               by Justin Turney, Rob Parrish, Andy Simmonett
                          and Daniel G. A. Smith
                              RHF Reference
                        1 Threads,    500 MiB Core
         ---------------------------------------------------------

  ==> Geometry <==

    Molecular point group: c1
    Full point group: C1

    Geometry (in Angstrom), charge = 0, multiplicity = 1:

       Center              X                  Y                   Z               Mass       
    ------------   -----------------  -----------------  -----------------  -----------------
         C            1.501735541197     0.647962265286    -2.008527353370    12.000000000000
         C            1.146605541197     0.536741265286    -0.541115353370    12.000000000000
         C            1.974705541197     1.418646265286     0.412419646630    12.000000000000
         C            3.238160541197     0.588551265286     0.713808646630    12.000000000000
         C            3.517558541197    -0.186251734714    -0.590478353370    12.000000000000
         C            2.130161541197    -0.451604734714    -1.174625353370    12.000000000000
         C           -0.226970458803     0.123520265286    -0.126667353370    12.000000000000
         C           -0.396186458803    -0.784825734714     0.939429646630    12.000000000000
         C           -1.678453458803    -1.155592734714     1.370754646630    12.000000000000
         C           -2.815067458803    -0.622557734714     0.738797646630    12.000000000000
         C           -2.659047458803     0.282805265286    -0.322896353370    12.000000000000
         C           -1.373230458803     0.654133265286    -0.749122353370    12.000000000000
         H           -1.251826458803     1.366039265286    -1.571926353370     1.007825032230
         H           -3.539813458803     0.702464265286    -0.818776353370     1.007825032230
         O           -4.077593458803    -0.990080734714     1.157549646630    15.994914619570
         H           -1.792575458803    -1.865753734714     2.195614646630     1.007825032230
         H            0.489905541197    -1.210236734714     1.423354646630     1.007825032230
         H            1.806042541197    -1.478319734714    -1.369111353370     1.007825032230
         H            0.740865541197     0.348573265286    -2.734880353370     1.007825032230
         H            2.143051541197     1.480017265286    -2.318337353370     1.007825032230
         H            4.068394541197    -1.122442734714    -0.407016353370     1.007825032230
         H            4.126288541197     0.421405265286    -1.283895353370     1.007825032230
         H            3.003093541197    -0.136209734714     1.513510646630     1.007825032230
         H            4.092149541197     1.197973265286     1.054997646630     1.007825032230
         H            1.403236541197     1.659274265286     1.322752646630     1.007825032230
         H            2.238952541197     2.374512265286    -0.075056353370     1.007825032230
         H           -4.726831458803    -0.544350734714     0.631599646630     1.007825032230

  Running in c1 symmetry.

  Rotational constants: A =      0.07296  B =      0.01437  C =      0.01333 [cm^-1]
  Rotational constants: A =   2187.24793  B =    430.84088  C =    399.56464 [MHz]
  Nuclear repulsion =  759.887152103648532

  Charge       = 0
  Multiplicity = 1
  Electrons    = 94
  Nalpha       = 47
  Nbeta        = 47

  ==> Algorithm <==

  SCF Algorithm Type is DF.
  DIIS enabled.
  MOM disabled.
  Fractional occupation disabled.
  Guess Type is SAD.
  Energy threshold   = 1.00e-10
  Density threshold  = 1.00e-10
  Integral threshold = 1.00e-12

  ==> Primary Basis <==

  Basis Set: CC-PVDZ
    Blend: CC-PVDZ
    Number of shells: 120
    Number of basis functions: 252
    Number of Cartesian functions: 265
    Spherical Harmonics?: true
    Max angular momentum: 2

   => Loading Basis Set <=

    Name: (CC-PVDZ AUX)
    Role: JKFIT
    Keyword: DF_BASIS_SCF
    atoms 1-12         entry C          line   121 file /home/maxbuskirk/.conda/envs/psifour/share/psi4/basis/cc-pvdz-jkfit.gbs 
    atoms 13-14, 16-27 entry H          line    51 file /home/maxbuskirk/.conda/envs/psifour/share/psi4/basis/cc-pvdz-jkfit.gbs 
    atoms 15           entry O          line   221 file /home/maxbuskirk/.conda/envs/psifour/share/psi4/basis/cc-pvdz-jkfit.gbs 

  ==> Integral Setup <==

  ==> DiskDFJK: Density-Fitted J/K Matrices <==

    J tasked:                  Yes
    K tasked:                  Yes
    wK tasked:                  No
    OpenMP threads:              1
    Integrals threads:           1
    Memory [MiB]:              375
    Algorithm:                Core
    Integral Cache:           NONE
    Schwarz Cutoff:          1E-12
    Fitting Condition:       1E-10

   => Auxiliary Basis Set <=

  Basis Set: (CC-PVDZ AUX)
    Blend: CC-PVDZ-JKFIT
    Number of shells: 438
    Number of basis functions: 1232
    Number of Cartesian functions: 1403
    Spherical Harmonics?: true
    Max angular momentum: 3

  Minimum eigenvalue in the overlap matrix is 3.4254768399E-04.
  Reciprocal condition number of the overlap matrix is 4.9483708841E-05.
    Using symmetric orthogonalization.

  ==> Pre-Iterations <==

  SCF Guess: Superposition of Atomic Densities via on-the-fly atomic UHF (no occupation information).

   -------------------------
    Irrep   Nso     Nmo    
   -------------------------
     A        252     252 
   -------------------------
    Total     252     252
   -------------------------

  ==> Iterations <==

                           Total Energy        Delta E     RMS |[F,P]|

   @DF-RHF iter SAD:  -537.02447259127916   -5.37024e+02   0.00000e+00 
   @DF-RHF iter   1:  -537.16358508663757   -1.39112e-01   2.52929e-03 DIIS
   @DF-RHF iter   2:  -537.38936247720028   -2.25777e-01   1.16037e-03 DIIS
   @DF-RHF iter   3:  -537.43172776011670   -4.23653e-02   2.96229e-04 DIIS
   @DF-RHF iter   4:  -537.43558603200893   -3.85827e-03   1.19255e-04 DIIS
   @DF-RHF iter   5:  -537.43611497948143   -5.28947e-04   2.17645e-05 DIIS
   @DF-RHF iter   6:  -537.43613933889424   -2.43594e-05   8.11206e-06 DIIS
   @DF-RHF iter   7:  -537.43614266490522   -3.32601e-06   2.28838e-06 DIIS
   @DF-RHF iter   8:  -537.43614306885354   -4.03948e-07   7.47322e-07 DIIS
   @DF-RHF iter   9:  -537.43614311933459   -5.04810e-08   2.85047e-07 DIIS
   @DF-RHF iter  10:  -537.43614312660361   -7.26902e-09   1.13987e-07 DIIS
   @DF-RHF iter  11:  -537.43614312877435   -2.17074e-09   5.30945e-08 DIIS
   @DF-RHF iter  12:  -537.43614312930913   -5.34783e-10   2.39742e-08 DIIS
   @DF-RHF iter  13:  -537.43614312942805   -1.18916e-10   9.85764e-09 DIIS
   @DF-RHF iter  14:  -537.43614312944521   -1.71667e-11   2.54171e-09 DIIS
   @DF-RHF iter  15:  -537.43614312944624   -1.02318e-12   7.55048e-10 DIIS
   @DF-RHF iter  16:  -537.43614312944476    1.47793e-12   3.85710e-10 DIIS
   @DF-RHF iter  17:  -537.43614312944635   -1.59162e-12   1.63361e-10 DIIS
   @DF-RHF iter  18:  -537.43614312944544    9.09495e-13   9.05525e-11 DIIS
  Energy and wave function converged.


  ==> Post-Iterations <==

    Orbital Energies [Eh]
    ---------------------

    Doubly Occupied:                                                      

       1A    -20.584368     2A    -11.306257     3A    -11.245274  
       4A    -11.245062     5A    -11.239606     6A    -11.237364  
       7A    -11.237021     8A    -11.236265     9A    -11.231354  
      10A    -11.229927    11A    -11.227050    12A    -11.226267  
      13A    -11.225567    14A     -1.398708    15A     -1.180706  
      16A     -1.134475    17A     -1.034270    18A     -1.013424  
      19A     -1.005890    20A     -0.949773    21A     -0.843726  
      22A     -0.842899    23A     -0.811646    24A     -0.772088  
      25A     -0.740093    26A     -0.726908    27A     -0.687304  
      28A     -0.652063    29A     -0.629409    30A     -0.616242  
      31A     -0.597010    32A     -0.582932    33A     -0.580612  
      34A     -0.570361    35A     -0.562874    36A     -0.556877  
      37A     -0.539686    38A     -0.490216    39A     -0.487209  
      40A     -0.481239    41A     -0.470259    42A     -0.467318  
      43A     -0.456752    44A     -0.405202    45A     -0.384033  
      46A     -0.337430    47A     -0.299423  

    Virtual:                                                              

      48A      0.126287    49A      0.149082    50A      0.177763  
      51A      0.181749    52A      0.201009    53A      0.206891  
      54A      0.211052    55A      0.233053    56A      0.238462  
      57A      0.250330    58A      0.258604    59A      0.260405  
      60A      0.265751    61A      0.284421    62A      0.302020  
      63A      0.307790    64A      0.335414    65A      0.350344  
      66A      0.358525    67A      0.373202    68A      0.387637  
      69A      0.406864    70A      0.416486    71A      0.426789  
      72A      0.464117    73A      0.480903    74A      0.493401  
      75A      0.512590    76A      0.520760    77A      0.526387  
      78A      0.588958    79A      0.627086    80A      0.632070  
      81A      0.643081    82A      0.662182    83A      0.663849  
      84A      0.675094    85A      0.682377    86A      0.690627  
      87A      0.708515    88A      0.714170    89A      0.719084  
      90A      0.725564    91A      0.738753    92A      0.746324  
      93A      0.748253    94A      0.760259    95A      0.777766  
      96A      0.791198    97A      0.809047    98A      0.817228  
      99A      0.827520   100A      0.845340   101A      0.854669  
     102A      0.860482   103A      0.868672   104A      0.870694  
     105A      0.882206   106A      0.884058   107A      0.887384  
     108A      0.896793   109A      0.900632   110A      0.904766  
     111A      0.906044   112A      0.910328   113A      0.918028  
     114A      0.921448   115A      0.937036   116A      0.946769  
     117A      0.954437   118A      0.958360   119A      0.973144  
     120A      0.981085   121A      1.003747   122A      1.027275  
     123A      1.050493   124A      1.117437   125A      1.132451  
     126A      1.145115   127A      1.146213   128A      1.179291  
     129A      1.180437   130A      1.203627   131A      1.239348  
     132A      1.250360   133A      1.264418   134A      1.284992  
     135A      1.288670   136A      1.297134   137A      1.303359  
     138A      1.327665   139A      1.347251   140A      1.355807  
     141A      1.366846   142A      1.394417   143A      1.412745  
     144A      1.427670   145A      1.458457   146A      1.462013  
     147A      1.477250   148A      1.480285   149A      1.504451  
     150A      1.521089   151A      1.573312   152A      1.606613  
     153A      1.607410   154A      1.618169   155A      1.654687  
     156A      1.681821   157A      1.702275   158A      1.724313  
     159A      1.735010   160A      1.754519   161A      1.776246  
     162A      1.788758   163A      1.789524   164A      1.810837  
     165A      1.820257   166A      1.830667   167A      1.849697  
     168A      1.864658   169A      1.871546   170A      1.875793  
     171A      1.892237   172A      1.902744   173A      1.906848  
     174A      1.916129   175A      1.923366   176A      1.930719  
     177A      1.937022   178A      1.949173   179A      1.951791  
     180A      1.958831   181A      1.973841   182A      1.978239  
     183A      1.996840   184A      2.004748   185A      2.021428  
     186A      2.027887   187A      2.038307   188A      2.041183  
     189A      2.054253   190A      2.056973   191A      2.076480  
     192A      2.080900   193A      2.093987   194A      2.113152  
     195A      2.120173   196A      2.138304   197A      2.150304  
     198A      2.189560   199A      2.199539   200A      2.208016  
     201A      2.232553   202A      2.248906   203A      2.252010  
     204A      2.265960   205A      2.270378   206A      2.290247  
     207A      2.296366   208A      2.325141   209A      2.351701  
     210A      2.360302   211A      2.376126   212A      2.380951  
     213A      2.419472   214A      2.440188   215A      2.445333  
     216A      2.456408   217A      2.467460   218A      2.476479  
     219A      2.490706   220A      2.531852   221A      2.538416  
     222A      2.563570   223A      2.595224   224A      2.610419  
     225A      2.630815   226A      2.640857   227A      2.684556  
     228A      2.727133   229A      2.751560   230A      2.774104  
     231A      2.778439   232A      2.786827   233A      2.801405  
     234A      2.833334   235A      2.855049   236A      2.915186  
     237A      2.916275   238A      2.929302   239A      2.989234  
     240A      2.994953   241A      3.014428   242A      3.055295  
     243A      3.081705   244A      3.145631   245A      3.228128  
     246A      3.255274   247A      3.260771   248A      3.338506  
     249A      3.554418   250A      3.662501   251A      3.924003  
     252A      4.194762  

    Final Occupation by Irrep:
              A 
    DOCC [    47 ]

  @DF-RHF Final Energy:  -537.43614312944544

   => Energetics <=

    Nuclear Repulsion Energy =            759.8871521036485319
    One-Electron Energy =               -2237.0857079069241991
    Two-Electron Energy =                 939.7624126738302266
    Total Energy =                       -537.4361431294454405

Computation Completed


Properties will be evaluated at   0.000000,   0.000000,   0.000000 [a0]

Properties computed using the SCF density matrix

  Nuclear Dipole Moment: [e a0]
     X:    11.9809      Y:     2.9885      Z:    -2.2792

  Electronic Dipole Moment: [e a0]
     X:   -11.9848      Y:    -2.6608      Z:     1.9055

  Dipole Moment: [e a0]
     X:    -0.0039      Y:     0.3277      Z:    -0.3737     Total:     0.4971

  Dipole Moment: [D]
     X:    -0.0099      Y:     0.8330      Z:    -0.9499     Total:     1.2635


*** tstop() called on skystd35.palmetto.clemson.edu at Tue Nov 23 21:57:01 2021
Module time:
	user time   =      18.36 seconds =       0.31 minutes
	system time =       0.53 seconds =       0.01 minutes
	total time  =         20 seconds =       0.33 minutes
Total time:
	user time   =      18.36 seconds =       0.31 minutes
	system time =       0.53 seconds =       0.01 minutes
	total time  =         20 seconds =       0.33 minutes

*** tstart() called on skystd35.palmetto.clemson.edu
*** at Tue Nov 23 21:57:01 2021


  //>>>>>>>>>>>>>>>>>>>>>>>>>>>>>>>>>>>//
  //               DFMP2               //
  //<<<<<<<<<<<<<<<<<<<<<<<<<<<<<<<<<<<//

   => Loading Basis Set <=

    Name: (CC-PVDZ AUX)
    Role: RIFIT
    Keyword: DF_BASIS_MP2
    atoms 1-12         entry C          line   159 file /home/maxbuskirk/.conda/envs/psifour/share/psi4/basis/cc-pvdz-ri.gbs 
    atoms 13-14, 16-27 entry H          line    19 file /home/maxbuskirk/.conda/envs/psifour/share/psi4/basis/cc-pvdz-ri.gbs 
    atoms 15           entry O          line   235 file /home/maxbuskirk/.conda/envs/psifour/share/psi4/basis/cc-pvdz-ri.gbs 

	 --------------------------------------------------------
	                          DF-MP2                         
	      2nd-Order Density-Fitted Moller-Plesset Theory     
	              RMP2 Wavefunction,   1 Threads             
	                                                         
	        Rob Parrish, Justin Turney, Andy Simmonett,      
	           Ed Hohenstein, and C. David Sherrill          
	 --------------------------------------------------------

   => Auxiliary Basis Set <=

  Basis Set: (CC-PVDZ AUX)
    Blend: CC-PVDZ-RI
    Number of shells: 318
    Number of basis functions: 924
    Number of Cartesian functions: 1068
    Spherical Harmonics?: true
    Max angular momentum: 3

	 --------------------------------------------------------
	                 NBF =   252, NAUX =   924
	 --------------------------------------------------------
	   CLASS    FOCC     OCC    AOCC    AVIR     VIR    FVIR
	   PAIRS       0      47      47     205     205       0
	 --------------------------------------------------------


         ------------------------------------------------------------
                                     CPHF                           
                                  Rob Parrish                       
         ------------------------------------------------------------

  ==> Geometry <==

    Molecular point group: c1
    Full point group: C1

    Geometry (in Angstrom), charge = 0, multiplicity = 1:

       Center              X                  Y                   Z               Mass       
    ------------   -----------------  -----------------  -----------------  -----------------
         C            1.501735541197     0.647962265286    -2.008527353370    12.000000000000
         C            1.146605541197     0.536741265286    -0.541115353370    12.000000000000
         C            1.974705541197     1.418646265286     0.412419646630    12.000000000000
         C            3.238160541197     0.588551265286     0.713808646630    12.000000000000
         C            3.517558541197    -0.186251734714    -0.590478353370    12.000000000000
         C            2.130161541197    -0.451604734714    -1.174625353370    12.000000000000
         C           -0.226970458803     0.123520265286    -0.126667353370    12.000000000000
         C           -0.396186458803    -0.784825734714     0.939429646630    12.000000000000
         C           -1.678453458803    -1.155592734714     1.370754646630    12.000000000000
         C           -2.815067458803    -0.622557734714     0.738797646630    12.000000000000
         C           -2.659047458803     0.282805265286    -0.322896353370    12.000000000000
         C           -1.373230458803     0.654133265286    -0.749122353370    12.000000000000
         H           -1.251826458803     1.366039265286    -1.571926353370     1.007825032230
         H           -3.539813458803     0.702464265286    -0.818776353370     1.007825032230
         O           -4.077593458803    -0.990080734714     1.157549646630    15.994914619570
         H           -1.792575458803    -1.865753734714     2.195614646630     1.007825032230
         H            0.489905541197    -1.210236734714     1.423354646630     1.007825032230
         H            1.806042541197    -1.478319734714    -1.369111353370     1.007825032230
         H            0.740865541197     0.348573265286    -2.734880353370     1.007825032230
         H            2.143051541197     1.480017265286    -2.318337353370     1.007825032230
         H            4.068394541197    -1.122442734714    -0.407016353370     1.007825032230
         H            4.126288541197     0.421405265286    -1.283895353370     1.007825032230
         H            3.003093541197    -0.136209734714     1.513510646630     1.007825032230
         H            4.092149541197     1.197973265286     1.054997646630     1.007825032230
         H            1.403236541197     1.659274265286     1.322752646630     1.007825032230
         H            2.238952541197     2.374512265286    -0.075056353370     1.007825032230
         H           -4.726831458803    -0.544350734714     0.631599646630     1.007825032230

  Nuclear repulsion =  759.887152103648532
  Reference energy  = -537.436143129445441

  ==> Basis Set <==

  Basis Set: CC-PVDZ
    Blend: CC-PVDZ
    Number of shells: 120
    Number of basis functions: 252
    Number of Cartesian functions: 265
    Spherical Harmonics?: true
    Max angular momentum: 2

  ==> CGRSolver (by Rob Parrish) <==

   Number of roots    =         1
   Preconditioning    =    JACOBI
   Convergence cutoff =     1E-06
   Maximum iterations =       100

  ==> CPHFRHamiltonian (by Rob Parrish) <== 

  ==> DiskDFJK: Density-Fitted J/K Matrices <==

    J tasked:                  Yes
    K tasked:                  Yes
    wK tasked:                  No
    OpenMP threads:              1
    Integrals threads:           1
    Memory [MiB]:              375
    Algorithm:                Core
    Integral Cache:           NONE
    Schwarz Cutoff:          1E-12
    Fitting Condition:       1E-10

   => Auxiliary Basis Set <=

  Basis Set: (CC-PVDZ AUX)
    Blend: CC-PVDZ-JKFIT
    Number of shells: 438
    Number of basis functions: 1232
    Number of Cartesian functions: 1403
    Spherical Harmonics?: true
    Max angular momentum: 3

  ==> CPHF Iterations <==

  => Iterations <=

             Iter  Converged  Remaining    Residual
  CGR           1          0          1   1.002E-01
  CGR           2          0          1   2.036E-02
  CGR           3          0          1   1.167E-02
  CGR           4          0          1   4.875E-03
  CGR           5          0          1   2.473E-03
  CGR           6          0          1   9.507E-04
  CGR           7          0          1   2.942E-04
  CGR           8          0          1   7.688E-05
  CGR           9          0          1   2.810E-05
  CGR          10          0          1   7.499E-06
  CGR          11          0          1   2.890E-06
  CGR          12          0          1   1.155E-06
  CGR          13          1          0   5.660E-07

    CGRSolver converged.

  ==> DFCorrGrad: Density-Fitted Correlated Gradients <==

    OpenMP threads:              1
    Integrals threads:           1
    Memory [GiB]:            0.366
    Schwarz Cutoff:          0E+00
    Fitting Condition:       1E-10

   => Auxiliary Basis Set <=

  Basis Set: (CC-PVDZ AUX)
    Blend: CC-PVDZ-JKFIT
    Number of shells: 438
    Number of basis functions: 1232
    Number of Cartesian functions: 1403
    Spherical Harmonics?: true
    Max angular momentum: 3

	-----------------------------------------------------------
	 ==================> DF-MP2 Energies <==================== 
	-----------------------------------------------------------
	 Reference Energy          =    -537.4361431294454405 [Eh]
	 Singles Energy            =      -0.0000000000000000 [Eh]
	 Same-Spin Energy          =      -0.4829108895697001 [Eh]
	 Opposite-Spin Energy      =      -1.3531459832557966 [Eh]
	 Correlation Energy        =      -1.8360568728254967 [Eh]
	 Total Energy              =    -539.2722000022708926 [Eh]
	-----------------------------------------------------------
	 ================> DF-SCS-MP2 Energies <================== 
	-----------------------------------------------------------
	 SCS Same-Spin Scale       =       0.3333333333333333 [-]
	 SCS Opposite-Spin Scale   =       1.2000000000000000 [-]
	 SCS Same-Spin Energy      =      -0.1609702965232334 [Eh]
	 SCS Opposite-Spin Energy  =      -1.6237751799069560 [Eh]
	 SCS Correlation Energy    =      -1.7847454764301893 [Eh]
	 SCS Total Energy          =    -539.2208886058756434 [Eh]
	-----------------------------------------------------------


  -Total Gradient:
     Atom            X                  Y                   Z
    ------   -----------------  -----------------  -----------------
       1       -0.000073730825     0.000013760192     0.000072467482
       2        0.000375480181    -0.000030196909    -0.000446569170
       3       -0.000151545309    -0.000077291498     0.000192767951
       4       -0.000042988749    -0.000110832832     0.000040854242
       5        0.000056504459    -0.000001272072     0.000028588866
       6       -0.000090067415     0.000002402160     0.000000535391
       7       -0.001973962948    -0.000827100832     0.001517714177
       8        0.004288040464    -0.002007203476     0.002490734552
       9       -0.000245744905     0.003135497132    -0.003713138864
      10        0.014655028387    -0.003901601360     0.004622778416
      11       -0.007189715316    -0.001696763792     0.001907397032
      12       -0.000099734698     0.001347011558    -0.001706009779
      13        0.000559713123     0.000099956050    -0.000129637656
      14        0.001171717454    -0.000175621453     0.000249924291
      15       -0.024913000418     0.016371936222    -0.019361570986
      16        0.002481715892    -0.000506769085     0.000657975796
      17        0.001022904151     0.000345207289    -0.000419376662
      18        0.000024468535    -0.000030567030    -0.000025550500
      19        0.000009379652    -0.000009232015    -0.000031353983
      20       -0.000042398157    -0.000000927029     0.000014144466
      21       -0.000035627999    -0.000007527531     0.000006501315
      22       -0.000047704668    -0.000041951628    -0.000002117409
      23        0.000012567979     0.000018981376    -0.000012580255
      24       -0.000037471239     0.000040694178    -0.000012999520
      25        0.000017957544     0.000044602600     0.000080696818
      26       -0.000123389702    -0.000091130859    -0.000019231214
      27        0.010391604527    -0.011904059356     0.013997055197


*** tstop() called on skystd35.palmetto.clemson.edu at Tue Nov 23 21:58:10 2021
Module time:
	user time   =      67.21 seconds =       1.12 minutes
	system time =       1.94 seconds =       0.03 minutes
	total time  =         69 seconds =       1.15 minutes
Total time:
	user time   =      85.57 seconds =       1.43 minutes
	system time =       2.47 seconds =       0.04 minutes
	total time  =         89 seconds =       1.48 minutes

			-----------------------------------------
			 OPTKING 2.0: for geometry optimizations 
			  - R.A. King,  Bethel University        
			-----------------------------------------

	Internal coordinates to be generated automatically.
	Detected frag 1 with atoms:  1 2 3 4 5 6 7 8 9 10 11 12 13 14 15 16 17 18 19 20
	 21 22 23 24 25 26 27
	---Fragment 1 Bond Connectivity---
	 1 : 2 6 19 20
	 2 : 1 3 6 7
	 3 : 2 4 25 26
	 4 : 3 5 23 24
	 5 : 4 6 21 22
	 6 : 1 2 5 18
	 7 : 2 8 12
	 8 : 7 9 17
	 9 : 8 10 16
	 10 : 9 11 15
	 11 : 10 12 14
	 12 : 7 11 13
	 13 : 12
	 14 : 11
	 15 : 10 27
	 16 : 9
	 17 : 8
	 18 : 6
	 19 : 1
	 20 : 1
	 21 : 5
	 22 : 5
	 23 : 4
	 24 : 4
	 25 : 3
	 26 : 3
	 27 : 15

	---Fragment 1 Geometry and Gradient---
	 C           2.8378688857        1.2244712210       -3.7955666134
	 C           2.1667704468        1.0142939916       -1.0225598201
	 C           3.7316526513        2.6808529103        0.7793601809
	 C           6.1192365731        1.1122007022        1.3489028481
	 C           6.6472222731       -0.3519647690       -1.1158423709
	 C           4.0254219158       -0.8534092656       -2.2197202179
	 C          -0.4289120057        0.2334194723       -0.2393666069
	 C          -0.7486839018       -1.4831056948        1.7752647463
	 C          -3.1718173515       -2.1837537812        2.5903508673
	 C          -5.3197065218       -1.1764636159        1.3961252143
	 C          -5.0248714517        0.5344244982       -0.6101856748
	 C          -2.5950294743        1.2361327209       -1.4156360823
	 H          -2.3656091637        2.5814400880       -2.9705102973
	 H          -6.6892779723        1.3274650743       -1.5472630659
	 O          -7.7055348881       -1.8709814307        2.1874518088
	 H          -3.3874766764       -3.5257635762        4.1491103592
	 H           0.9257873002       -2.2870159756        2.6897504615
	 H           3.4129257738       -2.7936194245       -2.5872454931
	 H           1.4000329687        0.6587080060       -5.1681748538
	 H           4.0497804856        2.7968272923       -4.3810226643
	 H           7.6881514532       -2.1211093601       -0.7691494365
	 H           7.7975552575        0.7963405392       -2.4262105916
	 H           5.6750243220       -0.2573990942        2.8601206101
	 H           7.7330418973        2.2638413770        1.9936566151
	 H           2.6517327521        3.1355739284        2.4996402339
	 H           4.2310071108        4.4871778629       -0.1418359518
	 H          -8.9324168983       -1.0286738048        1.1935503531
	            -0.0000737308        0.0000137602        0.0000724675
	             0.0003754802       -0.0000301969       -0.0004465692
	            -0.0001515453       -0.0000772915        0.0001927680
	            -0.0000429887       -0.0001108328        0.0000408542
	             0.0000565045       -0.0000012721        0.0000285889
	            -0.0000900674        0.0000024022        0.0000005354
	            -0.0019739629       -0.0008271008        0.0015177142
	             0.0042880405       -0.0020072035        0.0024907346
	            -0.0002457449        0.0031354971       -0.0037131389
	             0.0146550284       -0.0039016014        0.0046227784
	            -0.0071897153       -0.0016967638        0.0019073970
	            -0.0000997347        0.0013470116       -0.0017060098
	             0.0005597131        0.0000999561       -0.0001296377
	             0.0011717175       -0.0001756215        0.0002499243
	            -0.0249130004        0.0163719362       -0.0193615710
	             0.0024817159       -0.0005067691        0.0006579758
	             0.0010229042        0.0003452073       -0.0004193767
	             0.0000244685       -0.0000305670       -0.0000255505
	             0.0000093797       -0.0000092320       -0.0000313540
	            -0.0000423982       -0.0000009270        0.0000141445
	            -0.0000356280       -0.0000075275        0.0000065013
	            -0.0000477047       -0.0000419516       -0.0000021174
	             0.0000125680        0.0000189814       -0.0000125803
	            -0.0000374712        0.0000406942       -0.0000129995
	             0.0000179575        0.0000446026        0.0000806968
	            -0.0001233897       -0.0000911309       -0.0000192312
	             0.0103916045       -0.0119040594        0.0139970552

	Previous optimization step data not found.  Starting new optimization.

	---Fragment 1 Intrafragment Coordinates---
	 - Coordinate -           - BOHR/RAD -       - ANG/DEG -
	 R(1,2)           =         2.860789	       1.513864
	 R(1,6)           =         2.865512	       1.516364
	 R(1,19)          =         2.066764	       1.093684
	 R(1,20)          =         2.069732	       1.095255
	 R(2,3)           =         2.910875	       1.540368
	 R(2,6)           =         2.894148	       1.531517
	 R(2,7)           =         2.821476	       1.493061
	 R(3,4)           =         2.913006	       1.541497
	 R(3,25)          =         2.081433	       1.101447
	 R(3,26)          =         2.088245	       1.105052
	 R(4,5)           =         2.915050	       1.542578
	 R(4,23)          =         2.087321	       1.104562
	 R(4,24)          =         2.084790	       1.103224
	 R(5,6)           =         2.888569	       1.528565
	 R(5,21)          =         2.081731	       1.101604
	 R(5,22)          =         2.087806	       1.104820
	 R(6,18)          =         2.067521	       1.094085
	 R(7,8)           =         2.665981	       1.410776
	 R(7,12)          =         2.661035	       1.408159
	 R(8,9)           =         2.650820	       1.402754
	 R(8,17)          =         2.070365	       1.095590
	 R(9,10)          =         2.655981	       1.405485
	 R(9,16)          =         2.068147	       1.094416
	 R(10,11)         =         2.653177	       1.404001
	 R(10,15)         =         2.607821	       1.379999
	 R(11,12)         =         2.654294	       1.404592
	 R(11,14)         =         2.068158	       1.094422
	 R(12,13)         =         2.068845	       1.094786
	 R(15,27)         =         1.789570	       0.947000
	 B(1,2,3)         =         2.017351	     115.585685
	 B(1,2,6)         =         1.042344	      59.721936
	 B(1,2,7)         =         2.100422	     120.345328
	 B(1,6,2)         =         1.039528	      59.560564
	 B(1,6,5)         =         2.049282	     117.415187
	 B(1,6,18)        =         2.048738	     117.384025
	 B(2,1,6)         =         1.059720	      60.717500
	 B(2,1,19)        =         2.049292	     117.415782
	 B(2,1,20)        =         2.057096	     117.862942
	 B(2,3,4)         =         1.826944	     104.676198
	 B(2,3,25)        =         1.936680	     110.963570
	 B(2,3,26)        =         1.929130	     110.530986
	 B(2,6,5)         =         1.888930	     108.227717
	 B(2,6,18)        =         2.081600	     119.266883
	 B(2,7,8)         =         2.092441	     119.888038
	 B(2,7,12)        =         2.119852	     121.458574
	 B(3,2,6)         =         1.854886	     106.277162
	 B(3,2,7)         =         2.072817	     118.763664
	 B(3,4,5)         =         1.827213	     104.691617
	 B(3,4,23)        =         1.897014	     108.690913
	 B(3,4,24)        =         1.979545	     113.419580
	 B(4,3,25)        =         1.962002	     112.414409
	 B(4,3,26)        =         1.934839	     110.858094
	 B(4,5,6)         =         1.819262	     104.236043
	 B(4,5,21)        =         1.956931	     112.123910
	 B(4,5,22)        =         1.932871	     110.745342
	 B(5,4,23)        =         1.897723	     108.731493
	 B(5,4,24)        =         1.980944	     113.499740
	 B(5,6,18)        =         2.094079	     119.981893
	 B(6,1,19)        =         2.043221	     117.067911
	 B(6,1,20)        =         2.053042	     117.630648
	 B(6,2,7)         =         2.125903	     121.805252
	 B(6,5,21)        =         1.949769	     111.713517
	 B(6,5,22)        =         1.934481	     110.837597
	 B(7,8,9)         =         2.108523	     120.809467
	 B(7,8,17)        =         2.079202	     119.129487
	 B(7,12,11)       =         2.107639	     120.758819
	 B(7,12,13)       =         2.079425	     119.142292
	 B(8,7,12)        =         2.070330	     118.621159
	 B(8,9,10)        =         2.095249	     120.048921
	 B(8,9,16)        =         2.092759	     119.906259
	 B(9,8,17)        =         2.095393	     120.057181
	 B(9,10,11)       =         2.088291	     119.650243
	 B(9,10,15)       =         2.097186	     120.159930
	 B(10,9,16)       =         2.095155	     120.043517
	 B(10,11,12)      =         2.096327	     120.110679
	 B(10,11,14)      =         2.094932	     120.030779
	 B(10,15,27)      =         1.910634	     109.471290
	 B(11,10,15)      =         2.097704	     120.189603
	 B(11,12,13)      =         2.096116	     120.098614
	 B(12,11,14)      =         2.091924	     119.858405
	 B(19,1,20)       =         2.012474	     115.306264
	 B(21,5,22)       =         1.871758	     107.243849
	 B(23,4,24)       =         1.878938	     107.655190
	 B(25,3,26)       =         1.875161	     107.438837
	 D(1,2,3,4)       =        -1.487484	     -85.226572
	 D(1,2,3,25)      =         2.675187	     153.276932
	 D(1,2,3,26)      =         0.596675	      34.186976
	 D(1,2,6,5)       =         1.948453	     111.638142
	 D(1,2,6,18)      =        -1.856921	    -106.393716
	 D(1,2,7,8)       =         2.408854	     138.017151
	 D(1,2,7,12)      =        -0.769280	     -44.076485
	 D(1,6,2,3)       =        -1.928884	    -110.516925
	 D(1,6,2,7)       =         1.903190	     109.044759
	 D(1,6,5,4)       =         1.468895	      84.161501
	 D(1,6,5,21)      =        -2.697521	    -154.556588
	 D(1,6,5,22)      =        -0.611214	     -35.019998
	 D(2,1,6,5)       =        -1.674893	     -95.964306
	 D(2,1,6,18)      =         1.911561	     109.524357
	 D(2,3,4,5)       =         0.589407	      33.770540
	 D(2,3,4,23)      =        -1.436065	     -82.280465
	 D(2,3,4,24)      =         2.757968	     158.019943
	 D(2,6,1,19)      =        -1.882068	    -107.834530
	 D(2,6,1,20)      =         1.887309	     108.134828
	 D(2,6,5,4)       =         0.342659	      19.632931
	 D(2,6,5,21)      =         2.459428	     140.914841
	 D(2,6,5,22)      =        -1.737450	     -99.548568
	 D(2,7,8,9)       =         3.108309	     178.092997
	 D(2,7,8,17)      =        -0.045760	      -2.621861
	 D(2,7,12,11)     =        -3.110817	    -178.236678
	 D(2,7,12,13)     =         0.027453	       1.572949
	 D(3,2,1,6)       =         1.651177	      94.605460
	 D(3,2,1,19)      =        -2.759824	    -158.126276
	 D(3,2,1,20)      =        -0.229547	     -13.152074
	 D(3,2,6,5)       =         0.019569	       1.121217
	 D(3,2,6,18)      =         2.497380	     143.089359
	 D(3,2,7,8)       =        -1.201325	     -68.830845
	 D(3,2,7,12)      =         1.903727	     109.075519
	 D(3,4,5,6)       =        -0.573602	     -32.864999
	 D(3,4,5,21)      =        -2.685602	    -153.873654
	 D(3,4,5,22)      =         1.507600	      86.379143
	 D(4,3,2,6)       =        -0.375127	     -21.493186
	 D(4,3,2,7)       =         2.100956	     120.375901
	 D(4,5,6,18)      =        -2.129570	    -122.015351
	 D(5,4,3,25)      =         2.693170	     154.307289
	 D(5,4,3,26)      =        -1.490910	     -85.422842
	 D(5,6,1,19)      =         2.726225	     156.201164
	 D(5,6,1,20)      =         0.212416	      12.170522
	 D(5,6,2,7)       =        -2.431542	    -139.317099
	 D(6,1,2,7)       =        -1.944837	    -111.430967
	 D(6,2,1,19)      =         1.872184	     107.268264
	 D(6,2,1,20)      =        -1.880724	    -107.757534
	 D(6,2,3,25)      =        -2.495641	    -142.989682
	 D(6,2,3,26)      =         1.709033	      97.920361
	 D(6,2,7,8)       =         1.168456	      66.947624
	 D(6,2,7,12)      =        -2.009677	    -115.146011
	 D(6,5,4,23)      =         1.451379	      83.157872
	 D(6,5,4,24)      =        -2.741271	    -157.063259
	 D(7,2,1,19)      =        -0.072653	      -4.162703
	 D(7,2,1,20)      =         2.457624	     140.811498
	 D(7,2,3,25)      =        -0.019558	      -1.120595
	 D(7,2,3,26)      =        -2.098070	    -120.210552
	 D(7,2,6,18)      =         0.046269	       2.651043
	 D(7,8,9,10)      =         0.001304	       0.074700
	 D(7,8,9,16)      =         3.135653	     179.659684
	 D(7,12,11,10)    =         0.004887	       0.280010
	 D(7,12,11,14)    =        -3.139052	    -179.854428
	 D(8,7,12,11)     =        -0.005315	      -0.304531
	 D(8,7,12,13)     =         3.132955	     179.505096
	 D(8,9,10,11)     =        -0.001796	      -0.102888
	 D(8,9,10,15)     =         3.136800	     179.725380
	 D(9,8,7,12)      =         0.002225	       0.127485
	 D(9,10,11,12)    =        -0.001268	      -0.072650
	 D(9,10,11,14)    =        -3.140510	    -179.937978
	 D(9,10,15,27)    =         3.141593	     180.000000
	 D(10,9,8,17)     =        -3.127697	    -179.203838
	 D(10,11,12,13)   =        -3.133351	    -179.527802
	 D(11,10,9,16)    =        -3.136135	    -179.687298
	 D(11,10,15,27)   =        -0.003014	      -0.172692
	 D(12,7,8,17)     =         3.131341	     179.412627
	 D(12,11,10,15)   =        -3.139862	    -179.900866
	 D(13,12,11,14)   =         0.005895	       0.337760
	 D(14,11,10,15)   =         0.004081	       0.233806
	 D(15,10,9,16)    =         0.002460	       0.140969
	 D(16,9,8,17)     =         0.006652	       0.381147
	 D(18,6,1,19)     =         0.029493	       1.689827
	 D(18,6,1,20)     =        -2.484316	    -142.340815
	 D(18,6,5,21)     =        -0.012801	      -0.733441
	 D(18,6,5,22)     =         2.073506	     118.803150
	 D(21,5,4,23)     =        -0.660621	     -37.850783
	 D(21,5,4,24)     =         1.429915	      81.928087
	 D(22,5,4,23)     =        -2.750604	    -157.597986
	 D(22,5,4,24)     =        -0.660068	     -37.819116
	 D(23,4,3,25)     =         0.667698	      38.256283
	 D(23,4,3,26)     =         2.766803	     158.526152
	 D(24,4,3,25)     =        -1.421454	     -81.443309
	 D(24,4,3,26)     =         0.677651	      38.826560

	Current energy   :      -539.2722000023

	Generating empirical Hessian (Schlegel '84) for each fragment.
	Taking RFO optimization step.
	Going to follow RFO solution 1.
	Using RFO vector 1.
	Norm of target step-size    0.10211
	Projected energy change by RFO approximation:        -0.0026740520

	Back-transformation to cartesian coordinates...
	Successfully converged to displaced geometry.

	--- Internal Coordinate Step in ANG or DEG, aJ/ANG or AJ/DEG ---
	 ---------------------------------------------------------------------------
	   Coordinate                Previous        Force       Change         New 
	   ----------                --------       ------       ------       ------
	    1 R(1,2)          =      1.513864     0.000378     0.000177     1.514041
	    2 R(1,6)          =      1.516364     0.000315    -0.000108     1.516256
	    3 R(1,19)         =      1.093684    -0.000139    -0.000026     1.093659
	    4 R(1,20)         =      1.095255     0.000243     0.000045     1.095301
	    5 R(2,3)          =      1.540368     0.001013     0.000218     1.540586
	    6 R(2,6)          =      1.531517     0.000515     0.000127     1.531644
	    7 R(2,7)          =      1.493061     0.001505     0.000290     1.493350
	    8 R(3,4)          =      1.541497    -0.000006     0.000029     1.541525
	    9 R(3,25)         =      1.101447    -0.000553    -0.000105     1.101342
	   10 R(3,26)         =      1.105052     0.000823     0.000158     1.105210
	   11 R(4,5)          =      1.542578    -0.000516    -0.000046     1.542532
	   12 R(4,23)         =      1.104562     0.000200     0.000038     1.104601
	   13 R(4,24)         =      1.103224     0.000087     0.000017     1.103240
	   14 R(5,6)          =      1.528565     0.000314     0.000041     1.528605
	   15 R(5,21)         =      1.101604     0.000085     0.000016     1.101621
	   16 R(5,22)         =      1.104820     0.000396     0.000076     1.104896
	   17 R(6,18)         =      1.094085    -0.000214    -0.000040     1.094045
	   18 R(7,8)          =      1.410776     0.004137     0.000512     1.411288
	   19 R(7,12)         =      1.408159    -0.010623    -0.001529     1.406630
	   20 R(8,9)          =      1.402754    -0.011118    -0.001658     1.401095
	   21 R(8,17)         =      1.095590    -0.004185    -0.000780     1.094809
	   22 R(9,10)         =      1.405485    -0.027434    -0.003917     1.401568
	   23 R(9,16)         =      1.094416    -0.004663    -0.000866     1.093550
	   24 R(10,11)        =      1.404001     0.021975     0.003207     1.407208
	   25 R(10,15)        =      1.379999    -0.086239    -0.011218     1.368781
	   26 R(11,12)        =      1.404592    -0.009317    -0.001238     1.403354
	   27 R(11,14)        =      1.094422     0.009257     0.001719     1.096141
	   28 R(12,13)        =      1.094786    -0.001850    -0.000344     1.094442
	   29 R(15,27)        =      0.947000     0.168901     0.018500     0.965500
	   30 B(1,2,3)        =    115.585685    -0.000011    -0.078160   115.507525
	   31 B(1,2,6)        =     59.721936    -0.000000    -0.011208    59.710728
	   32 B(1,2,7)        =    120.345328    -0.000006    -0.075689   120.269638
	   33 B(1,6,2)        =     59.560564    -0.000000     0.007169    59.567733
	   34 B(1,6,5)        =    117.415187    -0.000002    -0.033933   117.381254
	   35 B(1,6,18)       =    117.384025     0.000000     0.012181   117.396205
	   36 B(2,1,6)        =     60.717500     0.000001     0.004039    60.721539
	   37 B(2,1,19)       =    117.415782    -0.000003    -0.019466   117.396316
	   38 B(2,1,20)       =    117.862942     0.000002     0.018069   117.881011
	   39 B(2,3,4)        =    104.676198     0.000005     0.003836   104.680034
	   40 B(2,3,25)       =    110.963570    -0.000007    -0.041663   110.921907
	   41 B(2,3,26)       =    110.530986     0.000006     0.061674   110.592660
	   42 B(2,6,5)        =    108.227717     0.000003     0.014176   108.241894
	   43 B(2,6,18)       =    119.266883    -0.000003    -0.019926   119.246957
	   44 B(2,7,8)        =    119.888038     0.000104     0.322311   120.210348
	   45 B(2,7,12)       =    121.458574     0.000058     0.184477   121.643051
	   46 B(3,2,6)        =    106.277162    -0.000009    -0.032265   106.244897
	   47 B(3,2,7)        =    118.763664     0.000018     0.112906   118.876570
	   48 B(3,4,5)        =    104.691617    -0.000003    -0.014872   104.676744
	   49 B(3,4,23)       =    108.690913     0.000000    -0.002993   108.687920
	   50 B(3,4,24)       =    113.419580     0.000003     0.030231   113.449811
	   51 B(4,3,25)       =    112.414409     0.000001     0.011207   112.425617
	   52 B(4,3,26)       =    110.858094    -0.000006    -0.040839   110.817255
	   53 B(4,5,6)        =    104.236043     0.000002    -0.007601   104.228442
	   54 B(4,5,21)       =    112.123910     0.000000     0.004007   112.127917
	   55 B(4,5,22)       =    110.745342    -0.000003    -0.019377   110.725966
	   56 B(5,4,23)       =    108.731493     0.000001    -0.003049   108.728444
	   57 B(5,4,24)       =    113.499740    -0.000001    -0.006196   113.493544
	   58 B(5,6,18)       =    119.981893     0.000002     0.014747   119.996640
	   59 B(6,1,19)       =    117.067911     0.000001     0.011433   117.079344
	   60 B(6,1,20)       =    117.630648    -0.000002    -0.020330   117.610319
	   61 B(6,2,7)        =    121.805252    -0.000002     0.033001   121.838253
	   62 B(6,5,21)       =    111.713517    -0.000001     0.013530   111.727046
	   63 B(6,5,22)       =    110.837597     0.000002     0.018068   110.855665
	   64 B(7,8,9)        =    120.809467     0.000219     0.689102   121.498569
	   65 B(7,8,17)       =    119.129487    -0.000028     0.035204   119.164691
	   66 B(7,12,11)      =    120.758819     0.000021     0.077619   120.836438
	   67 B(7,12,13)      =    119.142292     0.000032     0.158218   119.300511
	   68 B(8,7,12)       =    118.621159    -0.000162    -0.512353   118.108806
	   69 B(8,9,10)       =    120.048921    -0.000092    -0.341379   119.707542
	   70 B(8,9,16)       =    119.906259     0.000247     1.099613   121.005873
	   71 B(9,8,17)       =    120.057181    -0.000192    -0.723737   119.333444
	   72 B(9,10,11)      =    119.650243    -0.000016    -0.041311   119.608933
	   73 B(9,10,15)      =    120.159930    -0.000865    -2.579035   117.580895
	   74 B(10,9,16)      =    120.043517    -0.000155    -0.758439   119.285078
	   75 B(10,11,12)     =    120.110679     0.000030     0.128252   120.238931
	   76 B(10,11,14)     =    120.030779    -0.000050    -0.227987   119.802792
	   77 B(10,15,27)     =    109.471290    -0.000685    -3.171115   106.300175
	   78 B(11,10,15)     =    120.189603     0.000881     2.620255   122.809858
	   79 B(11,12,13)     =    120.098614    -0.000053    -0.235948   119.862666
	   80 B(12,11,14)     =    119.858405     0.000020     0.099723   119.958129
	   81 B(19,1,20)      =    115.306264     0.000001     0.004694   115.310958
	   82 B(21,5,22)      =    107.243849    -0.000000    -0.008174   107.235675
	   83 B(23,4,24)      =    107.655190    -0.000001    -0.004046   107.651144
	   84 B(25,3,26)      =    107.438837     0.000001     0.006586   107.445423
	   85 D(1,2,3,4)      =    -85.226572     0.000000    -0.022011   -85.248582
	   86 D(1,2,3,25)     =    153.276932     0.000000    -0.015229   153.261704
	   87 D(1,2,3,26)     =     34.186976    -0.000000    -0.036582    34.150394
	   88 D(1,2,6,5)      =    111.638142    -0.000001    -0.045809   111.592333
	   89 D(1,2,6,18)     =   -106.393716    -0.000000    -0.026852  -106.420568
	   90 D(1,2,7,8)      =    138.017151    -0.000001    -0.258157   137.758994
	   91 D(1,2,7,12)     =    -44.076485    -0.000002    -0.443166   -44.519651
	   92 D(1,6,2,3)      =   -110.516925     0.000002     0.075252  -110.441674
	   93 D(1,6,2,7)      =    109.044759    -0.000002    -0.112619   108.932140
	   94 D(1,6,5,4)      =     84.161501    -0.000000     0.016291    84.177792
	   95 D(1,6,5,21)     =   -154.556588     0.000000     0.023690  -154.532898
	   96 D(1,6,5,22)     =    -35.019998     0.000000     0.034504   -34.985494
	   97 D(2,1,6,5)      =    -95.964306    -0.000001    -0.039183   -96.003490
	   98 D(2,1,6,18)     =    109.524357    -0.000001    -0.027000   109.497357
	   99 D(2,3,4,5)      =     33.770540     0.000001     0.061380    33.831921
	  100 D(2,3,4,23)     =    -82.280465     0.000001     0.073760   -82.206705
	  101 D(2,3,4,24)     =    158.019943     0.000001     0.061688   158.081631
	  102 D(2,6,1,19)     =   -107.834530     0.000001     0.026788  -107.807742
	  103 D(2,6,1,20)     =    108.134828     0.000001     0.031741   108.166569
	  104 D(2,6,5,4)      =     19.632931    -0.000000     0.006263    19.639194
	  105 D(2,6,5,21)     =    140.914841     0.000000     0.013663   140.928504
	  106 D(2,6,5,22)     =    -99.548568     0.000000     0.024476   -99.524092
	  107 D(2,7,8,9)      =    178.092997    -0.000001    -0.176092   177.916905
	  108 D(2,7,8,17)     =     -2.621861    -0.000000    -0.126271    -2.748132
	  109 D(2,7,12,11)    =   -178.236678     0.000000     0.158286  -178.078393
	  110 D(2,7,12,13)    =      1.572949     0.000000     0.122734     1.695683
	  111 D(3,2,1,6)      =     94.605460    -0.000001    -0.001950    94.603510
	  112 D(3,2,1,19)     =   -158.126276    -0.000001     0.021598  -158.104678
	  113 D(3,2,1,20)     =    -13.152074    -0.000001     0.028640   -13.123434
	  114 D(3,2,6,5)      =      1.121217     0.000001     0.029443     1.150659
	  115 D(3,2,6,18)     =    143.089359     0.000002     0.048400   143.137758
	  116 D(3,2,7,8)      =    -68.830845    -0.000001    -0.375130   -69.205975
	  117 D(3,2,7,12)     =    109.075519    -0.000002    -0.560139   108.515380
	  118 D(3,4,5,6)      =    -32.864999    -0.000000    -0.036516   -32.901515
	  119 D(3,4,5,21)     =   -153.873654    -0.000000    -0.050250  -153.923903
	  120 D(3,4,5,22)     =     86.379143     0.000000    -0.029287    86.349856
	  121 D(4,3,2,6)      =    -21.493186    -0.000001    -0.054003   -21.547189
	  122 D(4,3,2,7)      =    120.375901     0.000000     0.092029   120.467930
	  123 D(4,5,6,18)     =   -122.015351    -0.000001     0.002646  -122.012705
	  124 D(5,4,3,25)     =    154.307289    -0.000000     0.019434   154.326723
	  125 D(5,4,3,26)     =    -85.422842    -0.000001     0.006913   -85.415929
	  126 D(5,6,1,19)     =    156.201164    -0.000000    -0.012396   156.188768
	  127 D(5,6,1,20)     =     12.170522    -0.000000    -0.007442    12.163079
	  128 D(5,6,2,7)      =   -139.317099    -0.000003    -0.158428  -139.475527
	  129 D(6,1,2,7)      =   -111.430967     0.000000    -0.066047  -111.497015
	  130 D(6,2,1,19)     =    107.268264     0.000000     0.023548   107.291812
	  131 D(6,2,1,20)     =   -107.757534     0.000001     0.030590  -107.726944
	  132 D(6,2,3,25)     =   -142.989682    -0.000001    -0.047221  -143.036903
	  133 D(6,2,3,26)     =     97.920361    -0.000001    -0.068574    97.851788
	  134 D(6,2,7,8)      =     66.947624     0.000000    -0.223100    66.724524
	  135 D(6,2,7,12)     =   -115.146011    -0.000001    -0.408109  -115.554121
	  136 D(6,5,4,23)     =     83.157872    -0.000000    -0.048867    83.109004
	  137 D(6,5,4,24)     =   -157.063259    -0.000000    -0.060061  -157.123320
	  138 D(7,2,1,19)     =     -4.162703     0.000001    -0.042499    -4.205202
	  139 D(7,2,1,20)     =    140.811498     0.000001    -0.035457   140.776041
	  140 D(7,2,3,25)     =     -1.120595     0.000000     0.098811    -1.021785
	  141 D(7,2,3,26)     =   -120.210552     0.000000     0.077458  -120.133094
	  142 D(7,2,6,18)     =      2.651043    -0.000002    -0.139471     2.511572
	  143 D(7,8,9,10)     =      0.074700     0.000000     0.002519     0.077218
	  144 D(7,8,9,16)     =    179.659684    -0.000000    -0.032373   179.627311
	  145 D(7,12,11,10)   =      0.280010     0.000000     0.034211     0.314221
	  146 D(7,12,11,14)   =   -179.854428     0.000000     0.028559  -179.825869
	  147 D(8,7,12,11)    =     -0.304531     0.000000    -0.006317    -0.310848
	  148 D(8,7,12,13)    =    179.505096     0.000000    -0.041869   179.463227
	  149 D(8,9,10,11)    =     -0.102888     0.000000     0.023906    -0.078982
	  150 D(8,9,10,15)    =    179.725380     0.000000    -0.002797   179.722583
	  151 D(9,8,7,12)     =      0.127485    -0.000000    -0.011339     0.116147
	  152 D(9,10,11,12)   =     -0.072650    -0.000000    -0.041375    -0.114025
	  153 D(9,10,11,14)   =   -179.937978    -0.000000    -0.036175  -179.974153
	  154 D(9,10,15,27)   =    180.000000     0.000000     0.041267   180.041267
	  155 D(10,9,8,17)    =   -179.203838    -0.000000    -0.052809  -179.256647
	  156 D(10,11,12,13)  =   -179.527802     0.000000     0.069209  -179.458592
	  157 D(11,10,9,16)   =   -179.687298     0.000000     0.050444  -179.636854
	  158 D(11,10,15,27)  =     -0.172692    -0.000000     0.008690    -0.164002
	  159 D(12,7,8,17)    =    179.412627    -0.000000     0.038482   179.451109
	  160 D(12,11,10,15)  =   -179.900866     0.000000    -0.003891  -179.904756
	  161 D(13,12,11,14)  =      0.337760     0.000000     0.063558     0.401318
	  162 D(14,11,10,15)  =      0.233806     0.000000     0.001310     0.235116
	  163 D(15,10,9,16)   =      0.140969     0.000000     0.023741     0.164710
	  164 D(16,9,8,17)    =      0.381147    -0.000001    -0.087701     0.293446
	  165 D(18,6,1,19)    =      1.689827    -0.000000    -0.000212     1.689615
	  166 D(18,6,1,20)    =   -142.340815    -0.000000     0.004741  -142.336074
	  167 D(18,6,5,21)    =     -0.733441    -0.000000     0.010046    -0.723395
	  168 D(18,6,5,22)    =    118.803150    -0.000000     0.020859   118.824009
	  169 D(21,5,4,23)    =    -37.850783    -0.000000    -0.062601   -37.913383
	  170 D(21,5,4,24)    =     81.928087    -0.000001    -0.073794    81.854292
	  171 D(22,5,4,23)    =   -157.597986     0.000000    -0.041638  -157.639624
	  172 D(22,5,4,24)    =    -37.819116    -0.000000    -0.052832   -37.871948
	  173 D(23,4,3,25)    =     38.256283    -0.000000     0.031813    38.288097
	  174 D(23,4,3,26)    =    158.526152    -0.000001     0.019293   158.545445
	  175 D(24,4,3,25)    =    -81.443309    -0.000000     0.019742   -81.423567
	  176 D(24,4,3,26)    =     38.826560    -0.000001     0.007221    38.833781
	 ---------------------------------------------------------------------------
	Successfully symmetrized geometry.

  ==> Convergence Check <==

  Measures of convergence in internal coordinates in au.
  Criteria marked as inactive (o), active & met (*), and active & unmet ( ).
  --------------------------------------------------------------------------------------------- ~
   Step     Total Energy     Delta E     MAX Force     RMS Force      MAX Disp      RMS Disp    ~
  --------------------------------------------------------------------------------------------- ~
    Convergence Criteria    1.00e-06 *    3.00e-04 *             o    1.20e-03 *             o  ~
  --------------------------------------------------------------------------------------------- ~
      1    -539.27220000   -5.39e+02      2.05e-02      2.31e-03 o    5.53e-02      7.70e-03 o  ~
  ---------------------------------------------------------------------------------------------

	Writing optimization data to binary file.
	Structure for next step:
	Cartesian Geometry (in Angstrom)
	    C     1.5000434662   0.6492459230  -2.0128391581
	    C     1.1462672653   0.5374185471  -0.5449641912
	    C     1.9766515693   1.4196152341   0.4066647310
	    C     3.2402238095   0.5890679198   0.7064589122
	    C     3.5175614880  -0.1853895766  -0.5984181559
	    C     2.1291140611  -0.4507393321  -1.1801718998
	    C    -0.2281909690   0.1254156294  -0.1311857228
	    C    -0.4065487199  -0.7879600831   0.9297889807
	    C    -1.6841255807  -1.1599795615   1.3684993757
	    C    -2.8172341301  -0.6197002648   0.7451563917
	    C    -2.6592674750   0.2926898499  -0.3144782012
	    C    -1.3751920997   0.6619113435  -0.7436955312
	    H    -1.2594605333   1.3787965150  -1.5625266296
	    H    -3.5432624302   0.7175086164  -0.8039755249
	    O    -4.0436430227  -1.0175745022   1.2046987318
	    H    -1.8130244651  -1.8730989729   2.1874605135
	    H     0.4742622151  -1.2230803324   1.4129556714
	    H     1.8044854018  -1.4773082253  -1.3743554811
	    H     0.7380746564   0.3505884173  -2.7383022145
	    H     2.1416160341   1.4809720577  -2.3231607683
	    H     4.0690630963  -1.1214453026  -0.4161724197
	    H     4.1252017566   0.4227799246  -1.2924624867
	    H     3.0057304527  -0.1359235150   1.5061733966
	    H     4.0951240564   1.1976971610   1.0468336661
	    H     1.4063923103   1.6606251393   1.3175280094
	    H     2.2414194839   2.3753771623  -0.0810911875
	    H    -4.6979701363  -0.5531176219   0.6677386619
			--------------------------
			 OPTKING Finished Execution 
			--------------------------

    Structure for next step:
    Molecular point group: c1
    Full point group: C1

    Geometry (in Angstrom), charge = 0, multiplicity = 1:

    C            1.498425920204     0.650345585515    -2.014942991078
    C            1.144649717875     0.538518209146    -0.547068018415
    C            1.975034025143     1.420714899608     0.404560907527
    C            3.238606270376     0.590167582070     0.704355089882
    C            3.515943949893    -0.184289917407    -0.600521983384
    C            2.127496517537    -0.449639673881    -1.182275729538
    C           -0.229808521779     0.126515289839    -0.133289548373
    C           -0.408166273427    -0.786860426276     0.927685159253
    C           -1.685743139197    -1.158879906101     1.366395555975
    C           -2.818851693071    -0.618600607260     0.743052569495
    C           -2.660885037392     0.293789511050    -0.316582027532
    C           -1.376809656960     0.663011006037    -0.745799359204
    H           -1.261078090138     1.379896180373    -1.564630460806
    H           -3.544879996056     0.718608279207    -0.806079353176
    O           -4.045260590443    -1.016474846238     1.202594911444
    H           -1.814642024125    -1.871999320308     2.185356696980
    H            0.472644665047    -1.221980677262     1.410851851851
    H            1.802867857031    -1.476208571122    -1.376459311624
    H            0.736457107445     0.351688078689    -2.740406050410
    H            2.139998490604     1.482071723461    -2.325264602569
    H            4.067445560447    -1.120345647006    -0.418276246434
    H            4.123584220918     0.423879586235    -1.294566316919
    H            3.004112912640    -0.134823855613     1.504069577400
    H            4.093506520622     1.198796825692     1.044729845082
    H            1.404774763917     1.661724805788     1.315424189467
    H            2.239801940779     2.376476831601    -0.083195012969
    H           -4.699587706632    -0.552017964062     0.665634839386


Scratch directory: /local_scratch/pbs.4067449.pbs02/
gradient() will perform analytic gradient computation.

*** tstart() called on skystd35.palmetto.clemson.edu
*** at Tue Nov 23 21:58:10 2021

   => Loading Basis Set <=

    Name: CC-PVDZ
    Role: ORBITAL
    Keyword: BASIS
    atoms 1-12         entry C          line   138 file /home/maxbuskirk/.conda/envs/psifour/share/psi4/basis/cc-pvdz.gbs 
    atoms 13-14, 16-27 entry H          line    22 file /home/maxbuskirk/.conda/envs/psifour/share/psi4/basis/cc-pvdz.gbs 
    atoms 15           entry O          line   198 file /home/maxbuskirk/.conda/envs/psifour/share/psi4/basis/cc-pvdz.gbs 


         ---------------------------------------------------------
                                   SCF
               by Justin Turney, Rob Parrish, Andy Simmonett
                          and Daniel G. A. Smith
                              RHF Reference
                        1 Threads,    500 MiB Core
         ---------------------------------------------------------

  ==> Geometry <==

    Molecular point group: c1
    Full point group: C1

    Geometry (in Angstrom), charge = 0, multiplicity = 1:

       Center              X                  Y                   Z               Mass       
    ------------   -----------------  -----------------  -----------------  -----------------
         C            1.498425920204     0.650345585515    -2.014942991078    12.000000000000
         C            1.144649717875     0.538518209146    -0.547068018415    12.000000000000
         C            1.975034025143     1.420714899608     0.404560907527    12.000000000000
         C            3.238606270376     0.590167582070     0.704355089882    12.000000000000
         C            3.515943949893    -0.184289917407    -0.600521983384    12.000000000000
         C            2.127496517537    -0.449639673881    -1.182275729538    12.000000000000
         C           -0.229808521779     0.126515289839    -0.133289548373    12.000000000000
         C           -0.408166273427    -0.786860426276     0.927685159253    12.000000000000
         C           -1.685743139197    -1.158879906101     1.366395555975    12.000000000000
         C           -2.818851693071    -0.618600607260     0.743052569495    12.000000000000
         C           -2.660885037392     0.293789511050    -0.316582027532    12.000000000000
         C           -1.376809656960     0.663011006037    -0.745799359204    12.000000000000
         H           -1.261078090138     1.379896180373    -1.564630460806     1.007825032230
         H           -3.544879996056     0.718608279207    -0.806079353176     1.007825032230
         O           -4.045260590443    -1.016474846238     1.202594911444    15.994914619570
         H           -1.814642024125    -1.871999320308     2.185356696980     1.007825032230
         H            0.472644665047    -1.221980677262     1.410851851851     1.007825032230
         H            1.802867857031    -1.476208571122    -1.376459311624     1.007825032230
         H            0.736457107445     0.351688078689    -2.740406050410     1.007825032230
         H            2.139998490604     1.482071723461    -2.325264602569     1.007825032230
         H            4.067445560447    -1.120345647006    -0.418276246434     1.007825032230
         H            4.123584220918     0.423879586235    -1.294566316919     1.007825032230
         H            3.004112912640    -0.134823855613     1.504069577400     1.007825032230
         H            4.093506520622     1.198796825692     1.044729845082     1.007825032230
         H            1.404774763917     1.661724805788     1.315424189467     1.007825032230
         H            2.239801940779     2.376476831601    -0.083195012969     1.007825032230
         H           -4.699587706632    -0.552017964062     0.665634839386     1.007825032230

  Running in c1 symmetry.

  Rotational constants: A =      0.07278  B =      0.01438  C =      0.01334 [cm^-1]
  Rotational constants: A =   2181.94928  B =    431.17591  C =    399.88402 [MHz]
  Nuclear repulsion =  760.108947827411725

  Charge       = 0
  Multiplicity = 1
  Electrons    = 94
  Nalpha       = 47
  Nbeta        = 47

  ==> Algorithm <==

  SCF Algorithm Type is DF.
  DIIS enabled.
  MOM disabled.
  Fractional occupation disabled.
  Guess Type is READ.
  Energy threshold   = 1.00e-10
  Density threshold  = 1.00e-10
  Integral threshold = 1.00e-12

  ==> Primary Basis <==

  Basis Set: CC-PVDZ
    Blend: CC-PVDZ
    Number of shells: 120
    Number of basis functions: 252
    Number of Cartesian functions: 265
    Spherical Harmonics?: true
    Max angular momentum: 2

   => Loading Basis Set <=

    Name: (CC-PVDZ AUX)
    Role: JKFIT
    Keyword: DF_BASIS_SCF
    atoms 1-12         entry C          line   121 file /home/maxbuskirk/.conda/envs/psifour/share/psi4/basis/cc-pvdz-jkfit.gbs 
    atoms 13-14, 16-27 entry H          line    51 file /home/maxbuskirk/.conda/envs/psifour/share/psi4/basis/cc-pvdz-jkfit.gbs 
    atoms 15           entry O          line   221 file /home/maxbuskirk/.conda/envs/psifour/share/psi4/basis/cc-pvdz-jkfit.gbs 

   => Loading Basis Set <=

    Name: CC-PVDZ
    Role: ORBITAL
    Keyword: BASIS
    atoms 1-12         entry C          line   138 file /home/maxbuskirk/.conda/envs/psifour/share/psi4/basis/cc-pvdz.gbs 
    atoms 13-14, 16-27 entry H          line    22 file /home/maxbuskirk/.conda/envs/psifour/share/psi4/basis/cc-pvdz.gbs 
    atoms 15           entry O          line   198 file /home/maxbuskirk/.conda/envs/psifour/share/psi4/basis/cc-pvdz.gbs 

  Reading orbitals from file /local_scratch/pbs.4067449.pbs02/rOH.mol.1601960.180.npy, no projection.

  ==> Integral Setup <==

  ==> DiskDFJK: Density-Fitted J/K Matrices <==

    J tasked:                  Yes
    K tasked:                  Yes
    wK tasked:                  No
    OpenMP threads:              1
    Integrals threads:           1
    Memory [MiB]:              375
    Algorithm:                Core
    Integral Cache:           NONE
    Schwarz Cutoff:          1E-12
    Fitting Condition:       1E-10

   => Auxiliary Basis Set <=

  Basis Set: (CC-PVDZ AUX)
    Blend: CC-PVDZ-JKFIT
    Number of shells: 438
    Number of basis functions: 1232
    Number of Cartesian functions: 1403
    Spherical Harmonics?: true
    Max angular momentum: 3

  Minimum eigenvalue in the overlap matrix is 3.3655320379E-04.
  Reciprocal condition number of the overlap matrix is 4.8630273796E-05.
    Using symmetric orthogonalization.

  ==> Pre-Iterations <==

  SCF Guess: Orbitals guess was supplied from a previous computation.

   -------------------------------------------------------
    Irrep   Nso     Nmo     Nalpha   Nbeta   Ndocc  Nsocc
   -------------------------------------------------------
     A        252     252      47      47      47       0
   -------------------------------------------------------
    Total     252     252      47      47      47       0
   -------------------------------------------------------

  ==> Iterations <==

                           Total Energy        Delta E     RMS |[F,P]|

   @DF-RHF iter   0:  -537.42932137535206   -5.37429e+02   3.67505e-04 
   @DF-RHF iter   1:  -537.43652206367142   -7.20069e-03   4.52777e-05 DIIS
   @DF-RHF iter   2:  -537.43662480215824   -1.02738e-04   1.81594e-05 DIIS
   @DF-RHF iter   3:  -537.43663786312936   -1.30610e-05   8.77546e-06 DIIS
   @DF-RHF iter   4:  -537.43664176767527   -3.90455e-06   2.74294e-06 DIIS
   @DF-RHF iter   5:  -537.43664225142788   -4.83753e-07   9.30948e-07 DIIS
   @DF-RHF iter   6:  -537.43664235100846   -9.95806e-08   5.42678e-07 DIIS
   @DF-RHF iter   7:  -537.43664239103725   -4.00288e-08   2.17935e-07 DIIS
   @DF-RHF iter   8:  -537.43664240042324   -9.38599e-09   8.20151e-08 DIIS
   @DF-RHF iter   9:  -537.43664240136150   -9.38257e-10   3.36021e-08 DIIS
   @DF-RHF iter  10:  -537.43664240149985   -1.38357e-10   9.15997e-09 DIIS
   @DF-RHF iter  11:  -537.43664240150611   -6.25278e-12   3.58406e-09 DIIS
   @DF-RHF iter  12:  -537.43664240150724   -1.13687e-12   1.13090e-09 DIIS
   @DF-RHF iter  13:  -537.43664240150827   -1.02318e-12   4.65179e-10 DIIS
   @DF-RHF iter  14:  -537.43664240150702    1.25056e-12   2.22158e-10 DIIS
   @DF-RHF iter  15:  -537.43664240150702    0.00000e+00   9.95405e-11 DIIS
  Energy and wave function converged.


  ==> Post-Iterations <==

    Orbital Energies [Eh]
    ---------------------

    Doubly Occupied:                                                      

       1A    -20.589432     2A    -11.304643     3A    -11.245351  
       4A    -11.243958     5A    -11.240111     6A    -11.236723  
       7A    -11.235992     8A    -11.234116     9A    -11.231141  
      10A    -11.229731    11A    -11.226814    12A    -11.226017  
      13A    -11.225269    14A     -1.403052    15A     -1.180344  
      16A     -1.134139    17A     -1.033901    18A     -1.013133  
      19A     -1.005183    20A     -0.949358    21A     -0.844132  
      22A     -0.842199    23A     -0.810872    24A     -0.771851  
      25A     -0.739288    26A     -0.723814    27A     -0.687020  
      28A     -0.654264    29A     -0.629152    30A     -0.615926  
      31A     -0.594389    32A     -0.584414    33A     -0.581946  
      34A     -0.570684    35A     -0.563171    36A     -0.559712  
      37A     -0.540411    38A     -0.489315    39A     -0.487669  
      40A     -0.481263    41A     -0.469888    42A     -0.466986  
      43A     -0.456786    44A     -0.404997    45A     -0.383703  
      46A     -0.337224    47A     -0.298667  

    Virtual:                                                              

      48A      0.127193    49A      0.149936    50A      0.177897  
      51A      0.179810    52A      0.201066    53A      0.206520  
      54A      0.211582    55A      0.233388    56A      0.238382  
      57A      0.250660    58A      0.258864    59A      0.260270  
      60A      0.265908    61A      0.284345    62A      0.302183  
      63A      0.308016    64A      0.335225    65A      0.350455  
      66A      0.359027    67A      0.373360    68A      0.388181  
      69A      0.407945    70A      0.416750    71A      0.427062  
      72A      0.464204    73A      0.481796    74A      0.494830  
      75A      0.514336    76A      0.521436    77A      0.527428  
      78A      0.588405    79A      0.627445    80A      0.631979  
      81A      0.645818    82A      0.662363    83A      0.663767  
      84A      0.675077    85A      0.683538    86A      0.690549  
      87A      0.708565    88A      0.714180    89A      0.719776  
      90A      0.727621    91A      0.740136    92A      0.746358  
      93A      0.748784    94A      0.755694    95A      0.780039  
      96A      0.791187    97A      0.808193    98A      0.817966  
      99A      0.827304   100A      0.843212   101A      0.849568  
     102A      0.858794   103A      0.868141   104A      0.870341  
     105A      0.882509   106A      0.885756   107A      0.887469  
     108A      0.896563   109A      0.899559   110A      0.904973  
     111A      0.906660   112A      0.910600   113A      0.918222  
     114A      0.922240   115A      0.936725   116A      0.946673  
     117A      0.954230   118A      0.957027   119A      0.972704  
     120A      0.981117   121A      1.004125   122A      1.026320  
     123A      1.050771   124A      1.117536   125A      1.131778  
     126A      1.144734   127A      1.147323   128A      1.178908  
     129A      1.180047   130A      1.204790   131A      1.240377  
     132A      1.250344   133A      1.262602   134A      1.283331  
     135A      1.285075   136A      1.296111   137A      1.299950  
     138A      1.329343   139A      1.352077   140A      1.361035  
     141A      1.366057   142A      1.394143   143A      1.406768  
     144A      1.426698   145A      1.453657   146A      1.465492  
     147A      1.473123   148A      1.482436   149A      1.506364  
     150A      1.520900   151A      1.573966   152A      1.592381  
     153A      1.608753   154A      1.614927   155A      1.654854  
     156A      1.681486   157A      1.702616   158A      1.723840  
     159A      1.735049   160A      1.755027   161A      1.779761  
     162A      1.788976   163A      1.792106   164A      1.809517  
     165A      1.818960   166A      1.830672   167A      1.849897  
     168A      1.865172   169A      1.870936   170A      1.875779  
     171A      1.893261   172A      1.906471   173A      1.908367  
     174A      1.917304   175A      1.921345   176A      1.931243  
     177A      1.937923   178A      1.949171   179A      1.952788  
     180A      1.958702   181A      1.974069   182A      1.978913  
     183A      1.996775   184A      2.004944   185A      2.020796  
     186A      2.030892   187A      2.038339   188A      2.041426  
     189A      2.053700   190A      2.058336   191A      2.078281  
     192A      2.079961   193A      2.095216   194A      2.113189  
     195A      2.118943   196A      2.137375   197A      2.150301  
     198A      2.190676   199A      2.202993   200A      2.209862  
     201A      2.233675   202A      2.248718   203A      2.253641  
     204A      2.266470   205A      2.268771   206A      2.290029  
     207A      2.296413   208A      2.325742   209A      2.351361  
     210A      2.360214   211A      2.376123   212A      2.381138  
     213A      2.419444   214A      2.439442   215A      2.443226  
     216A      2.453593   217A      2.456778   218A      2.472569  
     219A      2.484149   220A      2.533152   221A      2.538530  
     222A      2.563737   223A      2.594337   224A      2.611007  
     225A      2.629349   226A      2.638241   227A      2.685615  
     228A      2.730469   229A      2.752298   230A      2.776005  
     231A      2.779336   232A      2.787204   233A      2.801771  
     234A      2.832565   235A      2.855850   236A      2.915783  
     237A      2.916905   238A      2.930246   239A      2.992617  
     240A      2.999878   241A      3.013987   242A      3.062309  
     243A      3.080334   244A      3.147097   245A      3.231377  
     246A      3.261402   247A      3.265186   248A      3.321958  
     249A      3.561946   250A      3.693095   251A      3.881135  
     252A      4.180972  

    Final Occupation by Irrep:
              A 
    DOCC [    47 ]

  @DF-RHF Final Energy:  -537.43664240150702

   => Energetics <=

    Nuclear Repulsion Energy =            760.1089478274117255
    One-Electron Energy =               -2237.5348899125410753
    Two-Electron Energy =                 939.9892996836224484
    Total Energy =                       -537.4366424015070152

Computation Completed


Properties will be evaluated at   0.000000,   0.000000,   0.000000 [a0]

Properties computed using the SCF density matrix

  Nuclear Dipole Moment: [e a0]
     X:    11.9474      Y:     3.0098      Z:    -2.3218

  Electronic Dipole Moment: [e a0]
     X:   -11.9914      Y:    -2.6819      Z:     1.9534

  Dipole Moment: [e a0]
     X:    -0.0441      Y:     0.3279      Z:    -0.3684     Total:     0.4951

  Dipole Moment: [D]
     X:    -0.1120      Y:     0.8333      Z:    -0.9364     Total:     1.2585


*** tstop() called on skystd35.palmetto.clemson.edu at Tue Nov 23 21:58:26 2021
Module time:
	user time   =      15.62 seconds =       0.26 minutes
	system time =       0.42 seconds =       0.01 minutes
	total time  =         16 seconds =       0.27 minutes
Total time:
	user time   =     101.29 seconds =       1.69 minutes
	system time =       2.90 seconds =       0.05 minutes
	total time  =        105 seconds =       1.75 minutes

*** tstart() called on skystd35.palmetto.clemson.edu
*** at Tue Nov 23 21:58:26 2021


  //>>>>>>>>>>>>>>>>>>>>>>>>>>>>>>>>>>>//
  //               DFMP2               //
  //<<<<<<<<<<<<<<<<<<<<<<<<<<<<<<<<<<<//

   => Loading Basis Set <=

    Name: (CC-PVDZ AUX)
    Role: RIFIT
    Keyword: DF_BASIS_MP2
    atoms 1-12         entry C          line   159 file /home/maxbuskirk/.conda/envs/psifour/share/psi4/basis/cc-pvdz-ri.gbs 
    atoms 13-14, 16-27 entry H          line    19 file /home/maxbuskirk/.conda/envs/psifour/share/psi4/basis/cc-pvdz-ri.gbs 
    atoms 15           entry O          line   235 file /home/maxbuskirk/.conda/envs/psifour/share/psi4/basis/cc-pvdz-ri.gbs 

	 --------------------------------------------------------
	                          DF-MP2                         
	      2nd-Order Density-Fitted Moller-Plesset Theory     
	              RMP2 Wavefunction,   1 Threads             
	                                                         
	        Rob Parrish, Justin Turney, Andy Simmonett,      
	           Ed Hohenstein, and C. David Sherrill          
	 --------------------------------------------------------

   => Auxiliary Basis Set <=

  Basis Set: (CC-PVDZ AUX)
    Blend: CC-PVDZ-RI
    Number of shells: 318
    Number of basis functions: 924
    Number of Cartesian functions: 1068
    Spherical Harmonics?: true
    Max angular momentum: 3

	 --------------------------------------------------------
	                 NBF =   252, NAUX =   924
	 --------------------------------------------------------
	   CLASS    FOCC     OCC    AOCC    AVIR     VIR    FVIR
	   PAIRS       0      47      47     205     205       0
	 --------------------------------------------------------


[...]
	   87 D(1,2,3,26)     =     34.077960    -0.000000    -0.018304    34.059655
	   88 D(1,2,6,5)      =    111.607677    -0.000000    -0.006802   111.600875
	   89 D(1,2,6,18)     =   -106.437863    -0.000000    -0.004708  -106.442571
	   90 D(1,2,7,8)      =    136.473308    -0.000000    -0.658599   135.814708
	   91 D(1,2,7,12)     =    -45.850879    -0.000000    -0.695649   -46.546529
	   92 D(1,6,2,3)      =   -110.448122    -0.000000    -0.009120  -110.457243
	   93 D(1,6,2,7)      =    108.806255    -0.000000    -0.033246   108.773009
	   94 D(1,6,5,4)      =     84.243546     0.000000     0.032668    84.276215
	   95 D(1,6,5,21)     =   -154.456408     0.000000     0.031163  -154.425245
	   96 D(1,6,5,22)     =    -34.904388     0.000000     0.034870   -34.869519
	   97 D(2,1,6,5)      =    -95.974442    -0.000000    -0.000533   -95.974974
	   98 D(2,1,6,18)     =    109.508643     0.000000     0.014171   109.522814
	   99 D(2,3,4,5)      =     33.935009    -0.000000     0.019510    33.954519
	  100 D(2,3,4,23)     =    -82.075416    -0.000000     0.024316   -82.051100
	  101 D(2,3,4,24)     =    158.190088    -0.000000     0.021719   158.211807
	  102 D(2,6,1,19)     =   -107.718044     0.000000     0.027890  -107.690155
	  103 D(2,6,1,20)     =    108.160095    -0.000000     0.007073   108.167168
	  104 D(2,6,5,4)      =     19.696526     0.000000     0.029393    19.725919
	  105 D(2,6,5,21)     =    140.996572    -0.000000     0.027887   141.024460
	  106 D(2,6,5,22)     =    -99.451408     0.000000     0.031594   -99.419814
	  107 D(2,7,8,9)      =    177.863856    -0.000000    -0.039762   177.824094
	  108 D(2,7,8,17)     =     -2.805911    -0.000000    -0.040004    -2.845915
	  109 D(2,7,12,11)    =   -178.015083     0.000000     0.047091  -177.967992
	  110 D(2,7,12,13)    =      1.857250     0.000000     0.076043     1.933292
	  111 D(3,2,1,6)      =     94.616719     0.000000     0.008667    94.625386
	  112 D(3,2,1,19)     =   -158.028801    -0.000000     0.017214  -158.011587
	  113 D(3,2,1,20)     =    -13.100312     0.000000     0.020472   -13.079840
	  114 D(3,2,6,5)      =      1.159555    -0.000000    -0.015922     1.143633
	  115 D(3,2,6,18)     =    143.114014    -0.000000    -0.013828   143.100186
	  116 D(3,2,7,8)      =    -70.525204    -0.000000    -0.681050   -71.206254
	  117 D(3,2,7,12)     =    107.150609    -0.000000    -0.718100   106.432509
	  118 D(3,4,5,6)      =    -33.009584    -0.000000    -0.031862   -33.041446
	  119 D(3,4,5,21)     =   -154.045865     0.000000    -0.029459  -154.075324
	  120 D(3,4,5,22)     =     86.225881     0.000000    -0.031810    86.194071
	  121 D(4,3,2,6)      =    -21.617796     0.000000    -0.002738   -21.620534
	  122 D(4,3,2,7)      =    120.462800     0.000000     0.018464   120.481264
	  123 D(4,5,6,18)     =   -121.925890     0.000000     0.020148  -121.905742
	  124 D(5,4,3,25)     =    154.406075    -0.000000     0.014124   154.420199
	  125 D(5,4,3,26)     =    -85.301896     0.000000     0.020171   -85.281726
	  126 D(5,6,1,19)     =    156.307514    -0.000000     0.027357   156.334871
	  127 D(5,6,1,20)     =     12.185654    -0.000000     0.006540    12.192194
	  128 D(5,6,2,7)      =   -139.586068    -0.000000    -0.040048  -139.626115
	  129 D(6,1,2,7)      =   -111.498794    -0.000000    -0.014374  -111.513168
	  130 D(6,2,1,19)     =    107.354480    -0.000000     0.008547   107.363027
	  131 D(6,2,1,20)     =   -107.717031    -0.000000     0.011804  -107.705226
	  132 D(6,2,3,25)     =   -143.081816     0.000000     0.004429  -143.077387
	  133 D(6,2,3,26)     =     97.779571     0.000000    -0.007477    97.772095
	  134 D(6,2,7,8)      =     65.510824    -0.000000    -0.652354    64.858470
	  135 D(6,2,7,12)     =   -116.813363    -0.000000    -0.689404  -117.502767
	  136 D(6,5,4,23)     =     82.962117    -0.000000    -0.040094    82.922023
	  137 D(6,5,4,24)     =   -157.238825    -0.000000    -0.034787  -157.273612
	  138 D(7,2,1,19)     =     -4.144314    -0.000000    -0.005827    -4.150140
	  139 D(7,2,1,20)     =    140.784175    -0.000000    -0.002569   140.781606
	  140 D(7,2,3,25)     =     -1.001220     0.000000     0.025631    -0.975589
	  141 D(7,2,3,26)     =   -120.139832     0.000000     0.013725  -120.126107
	  142 D(7,2,6,18)     =      2.368392    -0.000000    -0.037954     2.330438
	  143 D(7,8,9,10)     =      0.057088     0.000000    -0.004596     0.052492
	  144 D(7,8,9,16)     =    179.607811     0.000000    -0.001103   179.606709
	  145 D(7,12,11,10)   =      0.307690    -0.000000    -0.012115     0.295575
	  146 D(7,12,11,14)   =   -179.788103    -0.000000     0.002760  -179.785343
	  147 D(8,7,12,11)    =     -0.288145    -0.000000     0.011066    -0.277079
	  148 D(8,7,12,13)    =    179.584188     0.000000     0.040018   179.624205
	  149 D(8,9,10,11)    =     -0.042401    -0.000000     0.003737    -0.038664
	  150 D(8,9,10,15)    =    179.737551     0.000000     0.020217   179.757768
	  151 D(9,8,7,12)     =      0.106100     0.000000    -0.002741     0.103360
	  152 D(9,10,11,12)   =     -0.137052     0.000000     0.004455    -0.132597
	  153 D(9,10,11,14)   =    179.958667     0.000000    -0.010403   179.948264
	  154 D(9,10,15,27)   =   -179.937924    -0.000000    -0.015876  -179.953800
	  155 D(10,9,8,17)    =   -179.271809     0.000000    -0.004170  -179.275979
	  156 D(10,11,12,13)  =   -179.564451    -0.000000    -0.041090  -179.605541
	  157 D(11,10,9,16)   =   -179.605682    -0.000000     0.000432  -179.605249
	  158 D(11,10,15,27)  =     -0.166877     0.000000     0.001337    -0.165540
	  159 D(12,7,8,17)    =    179.436333     0.000000    -0.002983   179.433350
	  160 D(12,11,10,15)  =   -179.903545    -0.000000    -0.013086  -179.916632
	  161 D(13,12,11,14)  =      0.339756    -0.000000    -0.026214     0.313542
	  162 D(14,11,10,15)  =      0.192174    -0.000000    -0.027945     0.164229
	  163 D(15,10,9,16)   =      0.174270     0.000000     0.016913     0.191183
	  164 D(16,9,8,17)    =      0.278914     0.000000    -0.000677     0.278238
	  165 D(18,6,1,19)    =      1.790599     0.000000     0.042061     1.832659
	  166 D(18,6,1,20)    =   -142.331262     0.000000     0.021244  -142.310018
	  167 D(18,6,5,21)    =     -0.625844    -0.000000     0.018642    -0.607202
	  168 D(18,6,5,22)    =    118.926176    -0.000000     0.022349   118.948525
	  169 D(21,5,4,23)    =    -38.074164     0.000000    -0.037691   -38.111855
	  170 D(21,5,4,24)    =     81.724894     0.000000    -0.032384    81.692509
	  171 D(22,5,4,23)    =   -157.802418     0.000000    -0.040042  -157.842460
	  172 D(22,5,4,24)    =    -38.003359     0.000000    -0.034736   -38.038095
	  173 D(23,4,3,25)    =     38.395650     0.000000     0.018930    38.414580
	  174 D(23,4,3,26)    =    158.687679     0.000000     0.024977   158.712656
	  175 D(24,4,3,25)    =    -81.338846    -0.000000     0.016333   -81.322513
	  176 D(24,4,3,26)    =     38.953183     0.000000     0.022380    38.975563
	 ---------------------------------------------------------------------------
	Successfully symmetrized geometry.

  ==> Convergence Check <==

  Measures of convergence in internal coordinates in au.
  Criteria marked as inactive (o), active & met (*), and active & unmet ( ).
  ---------------------------------------------------------------------------------------------
   Step     Total Energy     Delta E     MAX Force     RMS Force      MAX Disp      RMS Disp   
  ---------------------------------------------------------------------------------------------
    Convergence Criteria    1.00e-06 *    3.00e-04 *             o    1.20e-03 *             o
  ---------------------------------------------------------------------------------------------
      6    -539.27359596   -4.85e-07 *    8.80e-05 *    1.25e-05 o    1.25e-02      2.22e-03 o  ~
  ---------------------------------------------------------------------------------------------


  **** Optimization is complete! (in 6 steps) ****

  ==> Optimization Summary <==

  Measures of convergence in internal coordinates in au.
  --------------------------------------------------------------------------------------------------------------- ~
   Step         Total Energy             Delta E       MAX Force       RMS Force        MAX Disp        RMS Disp  ~
  --------------------------------------------------------------------------------------------------------------- ~
      1    -539.272200002271   -539.272200002271      0.02050093      0.00230970      0.05534640      0.00769622  ~
      2    -539.273515660169     -0.001315657898      0.00371998      0.00050001      0.01681974      0.00224742  ~
      3    -539.273589478774     -0.000073818605      0.00091156      0.00011861      0.00555316      0.00106540  ~
      4    -539.273594472595     -0.000004993821      0.00027935      0.00003154      0.00609408      0.00110746  ~
      5    -539.273595478179     -0.000001005584      0.00006443      0.00001224      0.00534814      0.00095530  ~
      6    -539.273595963236     -0.000000485057      0.00008796      0.00001249      0.01253321      0.00222379  ~
  --------------------------------------------------------------------------------------------------------------- ~

	Writing optimization data to binary file.
	Final energy is   -539.2735959632362
	Final (previous) structure:
	Cartesian Geometry (in Angstrom)
	    C     1.5000853931   0.6507666531  -2.0110413991
	    C     1.1461840883   0.5387170865  -0.5428233563
	    C     1.9747290126   1.4223336318   0.4089693813
	    C     3.2382669549   0.5924467825   0.7100741235
	    C     3.5180501919  -0.1802546327  -0.5953147069
	    C     2.1304335585  -0.4480269005  -1.1778491577
	    C    -0.2274876703   0.1249884420  -0.1321594086
	    C    -0.4083690158  -0.8096796778   0.9101553621
	    C    -1.6869706872  -1.1795276159   1.3422877901
	    C    -2.8236457991  -0.6174223838   0.7339439232
	    C    -2.6615488653   0.3141568170  -0.3050774987
	    C    -1.3739412247   0.6807117619  -0.7279926126
	    H    -1.2588965977   1.4128781108  -1.5336229871
	    H    -3.5425465665   0.7564962539  -0.7850326383
	    O    -4.0482176415  -1.0208937051   1.1943471051
	    H    -1.8289152788  -1.9080831151   2.1452156157
	    H     0.4709544883  -1.2617518995   1.3818095268
	    H     1.8075257806  -1.4751825563  -1.3717349921
	    H     0.7375429363   0.3516150581  -2.7357249306
	    H     2.1406557567   1.4832570017  -2.3213481311
	    H     4.0717312408  -1.1151575815  -0.4137584412
	    H     4.1244973870   0.4300460522  -1.2885362782
	    H     3.0023492277  -0.1337192234   1.5082737836
	    H     4.0922391046   1.2011392128   1.0526751189
	    H     1.4034742644   1.6631622415   1.3192930883
	    H     2.2391950248   2.3779503323  -0.0791798418
	    H    -4.7180471539  -0.5493623856   0.6792339999
	Saving final (previous) structure.
	Cleaning optimization helper files.
			--------------------------
			 OPTKING Finished Execution 
			--------------------------

    Final optimized geometry and variables:
    Molecular point group: c1
    Full point group: C1

    Geometry (in Angstrom), charge = 0, multiplicity = 1:

    C            1.500085399014     0.650766655705    -2.011041407054
    C            1.146184092814     0.538717088651    -0.542823358465
    C            1.974729020334     1.422333637354     0.408969382953
    C            3.238266967675     0.592446784866     0.710074126300
    C            3.518050205767    -0.180254633456    -0.595314709197
    C            2.130433566916    -0.448026902252    -1.177849162304
    C           -0.227487671233     0.124988442446    -0.132159409116
    C           -0.408369017356    -0.809679680991     0.910155365665
    C           -1.686970693857    -1.179527620582     1.342287795367
    C           -2.823645810176    -0.617422386258     0.733943926060
    C           -2.661548875793     0.314156818244    -0.305077499864
    C           -1.373941230125     0.680711764554    -0.727992615499
    H           -1.258896602667     1.412878116353    -1.533622993172
    H           -3.542546580433     0.756496256875    -0.785032641371
    O           -4.048217657446    -1.020893709124     1.194347109819
    H           -1.828915285983    -1.908083122563     2.145215624133
    H            0.470954490191    -1.261751904438     1.381809532243
    H            1.807525787693    -1.475182562140    -1.371734997498
    H            0.737542939184     0.351615059497    -2.735724941311
    H            2.140655765110     1.483257007560    -2.321348140201
    H            4.071731256843    -1.115157585847    -0.413758442869
    H            4.124497403204     0.430046053936    -1.288536283216
    H            3.002349239496    -0.133719223918     1.508273789569
    H            4.092239120726     1.201139217519     1.052675123053
    H            1.403474269931     1.663162248036     1.319293093505
    H            2.239195033589     2.377950341625    -0.079179842143
    H           -4.718047172412    -0.549362387780     0.679234002581

	Removing binary optimization data file.
	Cleaning optimization helper files.


Properties will be evaluated at   0.000000,   0.000000,   0.000000 [a0]
OEProp: No title given, name of density matrix used for the following properties is 'DF-MP2 relaxed density'
  Mulliken Charges: (a.u.)
   Center  Symbol    Alpha    Beta     Spin     Total
       1     C     2.97243  2.97243  0.00000  0.05514
       2     C     3.12302  3.12302  0.00000 -0.24603
       3     C     2.97960  2.97960  0.00000  0.04081
       4     C     3.02886  3.02886  0.00000 -0.05772
       5     C     3.00005  3.00005  0.00000 -0.00010
       6     C     3.05358  3.05358  0.00000 -0.10715
       7     C     3.03047  3.03047  0.00000 -0.06093
       8     C     2.98958  2.98958  0.00000  0.02084
       9     C     2.99694  2.99694  0.00000  0.00612
      10     C     2.96630  2.96630  0.00000  0.06741
      11     C     3.02204  3.02204  0.00000 -0.04407
      12     C     2.99443  2.99443  0.00000  0.01114
      13     H     0.49625  0.49625  0.00000  0.00751
      14     H     0.49283  0.49283  0.00000  0.01434
      15     O     4.10798  4.10798  0.00000 -0.21595
      16     H     0.48782  0.48782  0.00000  0.02436
      17     H     0.49721  0.49721  0.00000  0.00558
      18     H     0.48842  0.48842  0.00000  0.02317
      19     H     0.47825  0.47825  0.00000  0.04349
      20     H     0.48237  0.48237  0.00000  0.03526
      21     H     0.48004  0.48004  0.00000  0.03992
      22     H     0.48189  0.48189  0.00000  0.03622
      23     H     0.48058  0.48058  0.00000  0.03885
      24     H     0.48547  0.48547  0.00000  0.02907
      25     H     0.48033  0.48033  0.00000  0.03934
      26     H     0.48291  0.48291  0.00000  0.03419
      27     H     0.42039  0.42039  0.00000  0.15922

   Total alpha = 47.00000, Total beta = 47.00000, Total charge = -0.00000

    Molecular point group: c1
    Full point group: C1

    Geometry (in Angstrom), charge = 0, multiplicity = 1:

       Center              X                  Y                   Z               Mass       
    ------------   -----------------  -----------------  -----------------  -----------------
         C            1.500085399014     0.650766655705    -2.011041407054    12.000000000000
         C            1.146184092814     0.538717088651    -0.542823358465    12.000000000000
         C            1.974729020334     1.422333637354     0.408969382953    12.000000000000
         C            3.238266967675     0.592446784866     0.710074126300    12.000000000000
         C            3.518050205767    -0.180254633456    -0.595314709197    12.000000000000
         C            2.130433566916    -0.448026902252    -1.177849162304    12.000000000000
         C           -0.227487671233     0.124988442446    -0.132159409116    12.000000000000
         C           -0.408369017356    -0.809679680991     0.910155365665    12.000000000000
         C           -1.686970693857    -1.179527620582     1.342287795367    12.000000000000
         C           -2.823645810176    -0.617422386258     0.733943926060    12.000000000000
         C           -2.661548875793     0.314156818244    -0.305077499864    12.000000000000
         C           -1.373941230125     0.680711764554    -0.727992615499    12.000000000000
         H           -1.258896602667     1.412878116353    -1.533622993172     1.007825032230
         H           -3.542546580433     0.756496256875    -0.785032641371     1.007825032230
         O           -4.048217657446    -1.020893709124     1.194347109819    15.994914619570
         H           -1.828915285983    -1.908083122563     2.145215624133     1.007825032230
         H            0.470954490191    -1.261751904438     1.381809532243     1.007825032230
         H            1.807525787693    -1.475182562140    -1.371734997498     1.007825032230
         H            0.737542939184     0.351615059497    -2.735724941311     1.007825032230
         H            2.140655765110     1.483257007560    -2.321348140201     1.007825032230
         H            4.071731256843    -1.115157585847    -0.413758442869     1.007825032230
         H            4.124497403204     0.430046053936    -1.288536283216     1.007825032230
         H            3.002349239496    -0.133719223918     1.508273789569     1.007825032230
         H            4.092239120726     1.201139217519     1.052675123053     1.007825032230
         H            1.403474269931     1.663162248036     1.319293093505     1.007825032230
         H            2.239195033589     2.377950341625    -0.079179842143     1.007825032230
         H           -4.718047172412    -0.549362387780     0.679234002581     1.007825032230



  Variable Map:
  ----------------------------------------------------------------------------
  "CURRENT CORRELATION ENERGY"           =>      -1.836879749378
  "CURRENT DIPOLE X"                     =>      -0.161784390843
  "CURRENT DIPOLE Y"                     =>       0.848727487004
  "CURRENT DIPOLE Z"                     =>      -0.906256734696
  "CURRENT ENERGY"                       =>    -539.273595963236
  "CURRENT REFERENCE ENERGY"             =>    -537.436716213858
  "CUSTOM SCS-MP2 CORRELATION ENERGY"    =>      -1.785492868145
  "CUSTOM SCS-MP2 TOTAL ENERGY"          =>    -539.222209082003
  "HF TOTAL ENERGY"                      =>    -537.436716213858
  "MP2 CORRELATION ENERGY"               =>      -1.836879749378
  "MP2 DOUBLES ENERGY"                   =>      -1.836879749378
  "MP2 OPPOSITE-SPIN CORRELATION ENERGY" =>      -1.353691867330
  "MP2 SAME-SPIN CORRELATION ENERGY"     =>      -0.483187882048
  "MP2 SINGLES ENERGY"                   =>      -0.000000000000
  "MP2 TOTAL ENERGY"                     =>    -539.273595963236
  "NUCLEAR REPULSION ENERGY"             =>     759.981300075470
  "ONE-ELECTRON ENERGY"                  =>   -2237.297331792553
  "OPTIMIZATION ITERATIONS"              =>       6.000000000000
  "PCM POLARIZATION ENERGY"              =>       0.000000000000
  "PE ENERGY"                            =>       0.000000000000
  "SCF DIPOLE X"                         =>      -0.161784390843
  "SCF DIPOLE Y"                         =>       0.848727487004
  "SCF DIPOLE Z"                         =>      -0.906256734696
  "SCF ITERATION ENERGY"                 =>    -537.436716213858
  "SCF ITERATIONS"                       =>      13.000000000000
  "SCF TOTAL ENERGY"                     =>    -537.436716213858
  "SCS-MP2 CORRELATION ENERGY"           =>      -1.785492868145
  "SCS-MP2 TOTAL ENERGY"                 =>    -539.222209082003
  "TWO-ELECTRON ENERGY"                  =>     939.879315503225



    Psi4 stopped on: Tuesday, 23 November 2021 10:05PM
    Psi4 wall time for execution: 0:08:25.92

*** Psi4 exiting successfully. Buy a developer a beer!
