
    -----------------------------------------------------------------------
          Psi4: An Open-Source Ab Initio Electronic Structure Package
                               Psi4 1.4 release

                         Git: Rev {HEAD} 9485035 


    D. G. A. Smith, L. A. Burns, A. C. Simmonett, R. M. Parrish,
    M. C. Schieber, R. Galvelis, P. Kraus, H. Kruse, R. Di Remigio,
    A. Alenaizan, A. M. James, S. Lehtola, J. P. Misiewicz, M. Scheurer,
    R. A. Shaw, J. B. Schriber, Y. Xie, Z. L. Glick, D. A. Sirianni,
    J. S. O'Brien, J. M. Waldrop, A. Kumar, E. G. Hohenstein,
    B. P. Pritchard, B. R. Brooks, H. F. Schaefer III, A. Yu. Sokolov,
    K. Patkowski, A. E. DePrince III, U. Bozkaya, R. A. King,
    F. A. Evangelista, J. M. Turney, T. D. Crawford, C. D. Sherrill,
    J. Chem. Phys. 152(18) 184108 (2020). https://doi.org/10.1063/5.0006002

                            Additional Code Authors
    E. T. Seidl, C. L. Janssen, E. F. Valeev, M. L. Leininger,
    J. F. Gonthier, R. M. Richard, H. R. McAlexander, M. Saitow, X. Wang,
    P. Verma, and M. H. Lechner

             Previous Authors, Complete List of Code Contributors,
                       and Citations for Specific Modules
    https://github.com/psi4/psi4/blob/master/codemeta.json
    https://github.com/psi4/psi4/graphs/contributors
    http://psicode.org/psi4manual/master/introduction.html#citing-psifour

    -----------------------------------------------------------------------


    Psi4 started on: Friday, 26 November 2021 12:14AM

    Process ID: 2754372
    Host:       skystd18.palmetto.clemson.edu
    PSIDATADIR: /home/maxbuskirk/.conda/envs/psifour/share/psi4
    Memory:     500.0 MiB
    Threads:    1
    
  ==> Input File <==

--------------------------------------------------------------------------
molecule mol {
0 1
 C     0.355130     0.111221    -1.467412
 C    -0.000000    -0.000000     0.000000
 C     0.828100     0.881905     0.953535
 C     2.091555     0.051810     1.254924
 C     2.370953    -0.722993    -0.049363
 C     0.983556    -0.988346    -0.633510
 C    -1.373576    -0.413221     0.414448
 C    -1.542792    -1.321567     1.480545
 C    -2.825059    -1.692334     1.911870
 C    -3.961673    -1.159299     1.279913
 C    -3.805653    -0.253936     0.218219
 C    -2.519836     0.117392    -0.208007
 H    -2.398432     0.829298    -1.030811
 H    -4.686419     0.165723    -0.277661
 O    -5.224199    -1.526822     1.698665
 H    -2.939181    -2.402495     2.736730
 H    -0.656700    -1.746978     1.964470
 H     0.659437    -2.015061    -0.827996
 H    -0.405740    -0.188168    -2.193765
 H     0.996446     0.943276    -1.777222
 H     2.921789    -1.659184     0.134099
 H     2.979683    -0.115336    -0.742780
 H     1.856488    -0.672951     2.054626
 H     2.945544     0.661232     1.596113
 H     0.256631     1.122533     1.863868
 H     1.092347     1.837771     0.466059
 H    -5.873437    -1.081092     1.172715
}

set scf_type df
set basis cc-pVTZ
set reference rhf

mol.update_geometry()
mol.symmetrize(1e-3)

e, wfn = optimize('mp2', return_wfn=True)
oeprop(wfn, "MULLIKEN_CHARGES")
mol.print_out()
print_variables()
--------------------------------------------------------------------------

Scratch directory: /local_scratch/pbs.4080516.pbs02/
gradient() will perform analytic gradient computation.

*** tstart() called on skystd18.palmetto.clemson.edu
*** at Fri Nov 26 00:14:30 2021

   => Loading Basis Set <=

    Name: CC-PVTZ
    Role: ORBITAL
    Keyword: BASIS
    atoms 1-12         entry C          line   186 file /home/maxbuskirk/.conda/envs/psifour/share/psi4/basis/cc-pvtz.gbs 
    atoms 13-14, 16-27 entry H          line    23 file /home/maxbuskirk/.conda/envs/psifour/share/psi4/basis/cc-pvtz.gbs 
    atoms 15           entry O          line   262 file /home/maxbuskirk/.conda/envs/psifour/share/psi4/basis/cc-pvtz.gbs 


         ---------------------------------------------------------
                                   SCF
               by Justin Turney, Rob Parrish, Andy Simmonett
                          and Daniel G. A. Smith
                              RHF Reference
                        1 Threads,    500 MiB Core
         ---------------------------------------------------------

  ==> Geometry <==

    Molecular point group: c1
    Full point group: C1

    Geometry (in Angstrom), charge = 0, multiplicity = 1:

       Center              X                  Y                   Z               Mass       
    ------------   -----------------  -----------------  -----------------  -----------------
         C            1.501735541197     0.647962265286    -2.008527353370    12.000000000000
         C            1.146605541197     0.536741265286    -0.541115353370    12.000000000000
         C            1.974705541197     1.418646265286     0.412419646630    12.000000000000
         C            3.238160541197     0.588551265286     0.713808646630    12.000000000000
         C            3.517558541197    -0.186251734714    -0.590478353370    12.000000000000
         C            2.130161541197    -0.451604734714    -1.174625353370    12.000000000000
         C           -0.226970458803     0.123520265286    -0.126667353370    12.000000000000
         C           -0.396186458803    -0.784825734714     0.939429646630    12.000000000000
         C           -1.678453458803    -1.155592734714     1.370754646630    12.000000000000
         C           -2.815067458803    -0.622557734714     0.738797646630    12.000000000000
         C           -2.659047458803     0.282805265286    -0.322896353370    12.000000000000
         C           -1.373230458803     0.654133265286    -0.749122353370    12.000000000000
         H           -1.251826458803     1.366039265286    -1.571926353370     1.007825032230
         H           -3.539813458803     0.702464265286    -0.818776353370     1.007825032230
         O           -4.077593458803    -0.990080734714     1.157549646630    15.994914619570
         H           -1.792575458803    -1.865753734714     2.195614646630     1.007825032230
         H            0.489905541197    -1.210236734714     1.423354646630     1.007825032230
         H            1.806042541197    -1.478319734714    -1.369111353370     1.007825032230
         H            0.740865541197     0.348573265286    -2.734880353370     1.007825032230
         H            2.143051541197     1.480017265286    -2.318337353370     1.007825032230
         H            4.068394541197    -1.122442734714    -0.407016353370     1.007825032230
         H            4.126288541197     0.421405265286    -1.283895353370     1.007825032230
         H            3.003093541197    -0.136209734714     1.513510646630     1.007825032230
         H            4.092149541197     1.197973265286     1.054997646630     1.007825032230
         H            1.403236541197     1.659274265286     1.322752646630     1.007825032230
         H            2.238952541197     2.374512265286    -0.075056353370     1.007825032230
         H           -4.726831458803    -0.544350734714     0.631599646630     1.007825032230

  Running in c1 symmetry.

  Rotational constants: A =      0.07296  B =      0.01437  C =      0.01333 [cm^-1]
  Rotational constants: A =   2187.24793  B =    430.84088  C =    399.56464 [MHz]
  Nuclear repulsion =  759.887152103648532

  Charge       = 0
  Multiplicity = 1
  Electrons    = 94
  Nalpha       = 47
  Nbeta        = 47

  ==> Algorithm <==

  SCF Algorithm Type is DF.
  DIIS enabled.
  MOM disabled.
  Fractional occupation disabled.
  Guess Type is SAD.
  Energy threshold   = 1.00e-10
  Density threshold  = 1.00e-10
  Integral threshold = 1.00e-12

  ==> Primary Basis <==

  Basis Set: CC-PVTZ
    Blend: CC-PVTZ
    Number of shells: 214
    Number of basis functions: 586
    Number of Cartesian functions: 665
    Spherical Harmonics?: true
    Max angular momentum: 3

   => Loading Basis Set <=

    Name: (CC-PVTZ AUX)
    Role: JKFIT
    Keyword: DF_BASIS_SCF
    atoms 1-12         entry C          line   125 file /home/maxbuskirk/.conda/envs/psifour/share/psi4/basis/cc-pvtz-jkfit.gbs 
    atoms 13-14, 16-27 entry H          line    51 file /home/maxbuskirk/.conda/envs/psifour/share/psi4/basis/cc-pvtz-jkfit.gbs 
    atoms 15           entry O          line   229 file /home/maxbuskirk/.conda/envs/psifour/share/psi4/basis/cc-pvtz-jkfit.gbs 

  ==> Integral Setup <==

  ==> DiskDFJK: Density-Fitted J/K Matrices <==

    J tasked:                  Yes
    K tasked:                  Yes
    wK tasked:                  No
    OpenMP threads:              1
    Integrals threads:           1
    Memory [MiB]:              375
    Algorithm:                Disk
    Integral Cache:           NONE
    Schwarz Cutoff:          1E-12
    Fitting Condition:       1E-10

   => Auxiliary Basis Set <=

  Basis Set: (CC-PVTZ AUX)
    Blend: CC-PVTZ-JKFIT
    Number of shells: 465
    Number of basis functions: 1447
    Number of Cartesian functions: 1738
    Spherical Harmonics?: true
    Max angular momentum: 4

  Minimum eigenvalue in the overlap matrix is 3.5546881110E-05.
  Reciprocal condition number of the overlap matrix is 3.7012736612E-06.
    Using symmetric orthogonalization.

  ==> Pre-Iterations <==

  SCF Guess: Superposition of Atomic Densities via on-the-fly atomic UHF (no occupation information).

   -------------------------
    Irrep   Nso     Nmo    
   -------------------------
     A        586     586 
   -------------------------
    Total     586     586
   -------------------------

  ==> Iterations <==

                           Total Energy        Delta E     RMS |[F,P]|

   @DF-RHF iter SAD:  -537.49305052991133   -5.37493e+02   0.00000e+00 
   @DF-RHF iter   1:  -537.22863233415546    2.64418e-01   1.27332e-03 DIIS
   @DF-RHF iter   2:  -537.50097994631722   -2.72348e-01   6.29036e-04 DIIS
   @DF-RHF iter   3:  -537.56542357345540   -6.44436e-02   1.45914e-04 DIIS
   @DF-RHF iter   4:  -537.57033291216101   -4.90934e-03   6.24716e-05 DIIS
   @DF-RHF iter   5:  -537.57110674994215   -7.73838e-04   1.17543e-05 DIIS
   @DF-RHF iter   6:  -537.57114474952766   -3.79996e-05   4.27431e-06 DIIS
   @DF-RHF iter   7:  -537.57114945823309   -4.70871e-06   1.23029e-06 DIIS
   @DF-RHF iter   8:  -537.57115003547460   -5.77242e-07   4.03798e-07 DIIS
   @DF-RHF iter   9:  -537.57115010769530   -7.22207e-08   1.50831e-07 DIIS
   @DF-RHF iter  10:  -537.57115011804683   -1.03515e-08   6.34862e-08 DIIS
   @DF-RHF iter  11:  -537.57115012115696   -3.11013e-09   2.83812e-08 DIIS
   @DF-RHF iter  12:  -537.57115012195550   -7.98536e-10   1.41402e-08 DIIS
   @DF-RHF iter  13:  -537.57115012215513   -1.99634e-10   5.39225e-09 DIIS
   @DF-RHF iter  14:  -537.57115012218583   -3.06954e-11   1.58123e-09 DIIS
   @DF-RHF iter  15:  -537.57115012218526    5.68434e-13   5.34394e-10 DIIS
   @DF-RHF iter  16:  -537.57115012218890   -3.63798e-12   2.06745e-10 DIIS
   @DF-RHF iter  17:  -537.57115012218696    1.93268e-12   1.09627e-10 DIIS
   @DF-RHF iter  18:  -537.57115012218776   -7.95808e-13   5.91410e-11 DIIS
  Energy and wave function converged.


  ==> Post-Iterations <==

    Orbital Energies [Eh]
    ---------------------

    Doubly Occupied:                                                      

       1A    -20.582991     2A    -11.303795     3A    -11.240404  
       4A    -11.240192     5A    -11.235312     6A    -11.234729  
       7A    -11.233609     8A    -11.233057     9A    -11.226621  
      10A    -11.225337    11A    -11.222243    12A    -11.221627  
      13A    -11.220881    14A     -1.398988    15A     -1.178423  
      16A     -1.133012    17A     -1.032802    18A     -1.012254  
      19A     -1.004596    20A     -0.948687    21A     -0.843252  
      22A     -0.842823    23A     -0.811186    24A     -0.771946  
      25A     -0.740069    26A     -0.728021    27A     -0.687450  
      28A     -0.653227    29A     -0.629672    30A     -0.616721  
      31A     -0.597852    32A     -0.584005    33A     -0.583542  
      34A     -0.570980    35A     -0.563539    36A     -0.558585  
      37A     -0.540880    38A     -0.491736    39A     -0.488574  
      40A     -0.481608    41A     -0.470805    42A     -0.467923  
      43A     -0.457839    44A     -0.405877    45A     -0.384562  
      46A     -0.338502    47A     -0.301108  

    Virtual:                                                              

      48A      0.118003    49A      0.138566    50A      0.141212  
      51A      0.143509    52A      0.157595    53A      0.164373  
      54A      0.173642    55A      0.184915    56A      0.188334  
      57A      0.203899    58A      0.212077    59A      0.214067  
      60A      0.218799    61A      0.235738    62A      0.260329  
      63A      0.268276    64A      0.280956    65A      0.284118  
      66A      0.306536    67A      0.313369    68A      0.331774  
      69A      0.341046    70A      0.350760    71A      0.355876  
      72A      0.383965    73A      0.391772    74A      0.404114  
      75A      0.415659    76A      0.423876    77A      0.430982  
      78A      0.436761    79A      0.442855    80A      0.451895  
      81A      0.461107    82A      0.477086    83A      0.477663  
      84A      0.487138    85A      0.492401    86A      0.502070  
      87A      0.510995    88A      0.526406    89A      0.536278  
      90A      0.541641    91A      0.558675    92A      0.559674  
      93A      0.568401    94A      0.574328    95A      0.578930  
      96A      0.583261    97A      0.594420    98A      0.596115  
      99A      0.600128   100A      0.602971   101A      0.614107  
     102A      0.617785   103A      0.620503   104A      0.621805  
     105A      0.635032   106A      0.643638   107A      0.644181  
     108A      0.652374   109A      0.653186   110A      0.662963  
     111A      0.669884   112A      0.676013   113A      0.677805  
     114A      0.688161   115A      0.694819   116A      0.698379  
     117A      0.712701   118A      0.722461   119A      0.725768  
     120A      0.734639   121A      0.738693   122A      0.749521  
     123A      0.764311   124A      0.782923   125A      0.792950  
     126A      0.826017   127A      0.838642   128A      0.847694  
     129A      0.852967   130A      0.860926   131A      0.865318  
     132A      0.881635   133A      0.895831   134A      0.899112  
     135A      0.903863   136A      0.914236   137A      0.923024  
     138A      0.943094   139A      0.961584   140A      0.977013  
     141A      0.981767   142A      1.002098   143A      1.004373  
     144A      1.013355   145A      1.023173   146A      1.027034  
     147A      1.031332   148A      1.038157   149A      1.046187  
     150A      1.050572   151A      1.067347   152A      1.069117  
     153A      1.090530   154A      1.094134   155A      1.116658  
     156A      1.124237   157A      1.128594   158A      1.137198  
     159A      1.153218   160A      1.179556   161A      1.188986  
     162A      1.197596   163A      1.203513   164A      1.208552  
     165A      1.216760   166A      1.228875   167A      1.238665  
     168A      1.250376   169A      1.259435   170A      1.271420  
     171A      1.272208   172A      1.284217   173A      1.299241  
     174A      1.311043   175A      1.311965   176A      1.322837  
     177A      1.335690   178A      1.342223   179A      1.355605  
     180A      1.361549   181A      1.367260   182A      1.373753  
     183A      1.387987   184A      1.400043   185A      1.409925  
     186A      1.419260   187A      1.427557   188A      1.441868  
     189A      1.452042   190A      1.454790   191A      1.465270  
     192A      1.466206   193A      1.485584   194A      1.496862  
     195A      1.497786   196A      1.512998   197A      1.521249  
     198A      1.527270   199A      1.537112   200A      1.551977  
     201A      1.554461   202A      1.555414   203A      1.564851  
     204A      1.568843   205A      1.574011   206A      1.584302  
     207A      1.586283   208A      1.598412   209A      1.610718  
     210A      1.633856   211A      1.639236   212A      1.645809  
     213A      1.659547   214A      1.684632   215A      1.691418  
     216A      1.698897   217A      1.701508   218A      1.715154  
     219A      1.725712   220A      1.738496   221A      1.743761  
     222A      1.753250   223A      1.759454   224A      1.773994  
     225A      1.791068   226A      1.798280   227A      1.803298  
     228A      1.830853   229A      1.859494   230A      1.881804  
     231A      1.889174   232A      1.914723   233A      1.931945  
     234A      1.940493   235A      1.967834   236A      1.978977  
     237A      2.005059   238A      2.009425   239A      2.046006  
     240A      2.063909   241A      2.122794   242A      2.151160  
     243A      2.163221   244A      2.175372   245A      2.204158  
     246A      2.207332   247A      2.322074   248A      2.336469  
     249A      2.364388   250A      2.375926   251A      2.412350  
     252A      2.446357   253A      2.448735   254A      2.468591  
     255A      2.514265   256A      2.553062   257A      2.570657  
     258A      2.589248   259A      2.597918   260A      2.598745  
     261A      2.612569   262A      2.628084   263A      2.658488  
     264A      2.664057   265A      2.684576   266A      2.695956  
     267A      2.702788   268A      2.722285   269A      2.737787  
     270A      2.756060   271A      2.768260   272A      2.789766  
     273A      2.802917   274A      2.807269   275A      2.810618  
     276A      2.823345   277A      2.841978   278A      2.850189  
     279A      2.859357   280A      2.867337   281A      2.874412  
     282A      2.893585   283A      2.901530   284A      2.916665  
     285A      2.923188   286A      2.929879   287A      2.936076  
     288A      2.940779   289A      2.950569   290A      2.970379  
     291A      2.981952   292A      2.996782   293A      3.009763  
     294A      3.015067   295A      3.016854   296A      3.022510  
     297A      3.037684   298A      3.043981   299A      3.058301  
     300A      3.058911   301A      3.071924   302A      3.075577  
     303A      3.085938   304A      3.092449   305A      3.100901  
     306A      3.110103   307A      3.123781   308A      3.143232  
     309A      3.154626   310A      3.165485   311A      3.169155  
     312A      3.173964   313A      3.191694   314A      3.213719  
     315A      3.231204   316A      3.241121   317A      3.249548  
     318A      3.261244   319A      3.264531   320A      3.273500  
     321A      3.279342   322A      3.294014   323A      3.309577  
     324A      3.312651   325A      3.326868   326A      3.340606  
     327A      3.355759   328A      3.359063   329A      3.359553  
     330A      3.370078   331A      3.377536   332A      3.386832  
     333A      3.391913   334A      3.394225   335A      3.398061  
     336A      3.405878   337A      3.409852   338A      3.415725  
     339A      3.420195   340A      3.425658   341A      3.429104  
     342A      3.440587   343A      3.445886   344A      3.456669  
     345A      3.461347   346A      3.468703   347A      3.479391  
     348A      3.495098   349A      3.508422   350A      3.521009  
     351A      3.529376   352A      3.533259   353A      3.547102  
     354A      3.549086   355A      3.559651   356A      3.567952  
     357A      3.581711   358A      3.591091   359A      3.608243  
     360A      3.616575   361A      3.624813   362A      3.627854  
     363A      3.634347   364A      3.642639   365A      3.654172  
     366A      3.661632   367A      3.668850   368A      3.675736  
     369A      3.689507   370A      3.690357   371A      3.701566  
     372A      3.705939   373A      3.717827   374A      3.731987  
     375A      3.732327   376A      3.740061   377A      3.754063  
     378A      3.769749   379A      3.778302   380A      3.790850  
     381A      3.800834   382A      3.812700   383A      3.836174  
     384A      3.838541   385A      3.848383   386A      3.867580  
     387A      3.868258   388A      3.886012   389A      3.896055  
     390A      3.900971   391A      3.912635   392A      3.926123  
     393A      3.939437   394A      3.946665   395A      3.959004  
     396A      3.969133   397A      3.992089   398A      4.001150  
     399A      4.007653   400A      4.012619   401A      4.016647  
     402A      4.034186   403A      4.039858   404A      4.056162  
     405A      4.062822   406A      4.072007   407A      4.077901  
     408A      4.084433   409A      4.099710   410A      4.102812  
     411A      4.111259   412A      4.123192   413A      4.127424  
     414A      4.142129   415A      4.142817   416A      4.150674  
     417A      4.162374   418A      4.176334   419A      4.186200  
     420A      4.192670   421A      4.195438   422A      4.204915  
     423A      4.212038   424A      4.215729   425A      4.223038  
     426A      4.231133   427A      4.240164   428A      4.264671  
     429A      4.276327   430A      4.285892   431A      4.299013  
     432A      4.307744   433A      4.312840   434A      4.319718  
     435A      4.332796   436A      4.345375   437A      4.349409  
     438A      4.366808   439A      4.378176   440A      4.386058  
     441A      4.390652   442A      4.402776   443A      4.412207  
     444A      4.424770   445A      4.428400   446A      4.436495  
     447A      4.452273   448A      4.458771   449A      4.468471  
     450A      4.481001   451A      4.488830   452A      4.500619  
     453A      4.515819   454A      4.528079   455A      4.539016  
     456A      4.555014   457A      4.568288   458A      4.572942  
     459A      4.579793   460A      4.589973   461A      4.594401  
     462A      4.606542   463A      4.608050   464A      4.614877  
     465A      4.626824   466A      4.631113   467A      4.641751  
     468A      4.645597   469A      4.658090   470A      4.668851  
     471A      4.674707   472A      4.687112   473A      4.703217  
     474A      4.714427   475A      4.715802   476A      4.720771  
     477A      4.740588   478A      4.753124   479A      4.759586  
     480A      4.795169   481A      4.807112   482A      4.812788  
     483A      4.834140   484A      4.856041   485A      4.876160  
     486A      4.902433   487A      4.926681   488A      4.946939  
     489A      4.952821   490A      4.974173   491A      5.022310  
     492A      5.027494   493A      5.034964   494A      5.054410  
     495A      5.063948   496A      5.075364   497A      5.087152  
     498A      5.092562   499A      5.110932   500A      5.121769  
     501A      5.145231   502A      5.159368   503A      5.166890  
     504A      5.186594   505A      5.209769   506A      5.223888  
     507A      5.255975   508A      5.260009   509A      5.290887  
     510A      5.297782   511A      5.310041   512A      5.321487  
     513A      5.337224   514A      5.343729   515A      5.356785  
     516A      5.366326   517A      5.375780   518A      5.400934  
     519A      5.409182   520A      5.437082   521A      5.455091  
     522A      5.461119   523A      5.481949   524A      5.487443  
     525A      5.506103   526A      5.530051   527A      5.549040  
     528A      5.570431   529A      5.598429   530A      5.607565  
     531A      5.613544   532A      5.631356   533A      5.657264  
     534A      5.666178   535A      5.689055   536A      5.720193  
     537A      5.770584   538A      5.789500   539A      5.794784  
     540A      5.811836   541A      5.832954   542A      5.859358  
     543A      5.873778   544A      5.910588   545A      5.943647  
     546A      5.970698   547A      5.987187   548A      6.012657  
     549A      6.046859   550A      6.103668   551A      6.138553  
     552A      6.178124   553A      6.203718   554A      6.255457  
     555A      6.302042   556A      6.336843   557A      6.360465  
     558A      6.370309   559A      6.387260   560A      6.434657  
     561A      6.475904   562A      6.523505   563A      6.600153  
     564A      6.912942   565A      6.993582   566A      7.058074  
     567A      7.115139   568A      7.282201   569A      7.302643  
     570A      7.346753   571A      7.573596   572A      7.799691  
     573A      7.984800   574A      9.385641   575A     11.987464  
     576A     12.432545   577A     12.466287   578A     12.728588  
     579A     13.022629   580A     13.181480   581A     13.230884  
     582A     13.399701   583A     13.743969   584A     13.826181  
     585A     13.947224   586A     15.886882  

    Final Occupation by Irrep:
              A 
    DOCC [    47 ]

  @DF-RHF Final Energy:  -537.57115012218776

   => Energetics <=

    Nuclear Repulsion Energy =            759.8871521036485319
    One-Electron Energy =               -2237.4329207742375729
    Two-Electron Energy =                 939.9746185484012813
    Total Energy =                       -537.5711501221877597

Computation Completed


Properties will be evaluated at   0.000000,   0.000000,   0.000000 [a0]

Properties computed using the SCF density matrix

  Nuclear Dipole Moment: [e a0]
     X:    11.9809      Y:     2.9885      Z:    -2.2792

  Electronic Dipole Moment: [e a0]
     X:   -11.9592      Y:    -2.6595      Z:     1.9042

  Dipole Moment: [e a0]
     X:     0.0217      Y:     0.3290      Z:    -0.3751     Total:     0.4994

  Dipole Moment: [D]
     X:     0.0551      Y:     0.8363      Z:    -0.9533     Total:     1.2693


*** tstop() called on skystd18.palmetto.clemson.edu at Fri Nov 26 00:16:29 2021
Module time:
	user time   =     108.81 seconds =       1.81 minutes
	system time =      10.45 seconds =       0.17 minutes
	total time  =        119 seconds =       1.98 minutes
Total time:
	user time   =     108.81 seconds =       1.81 minutes
	system time =      10.45 seconds =       0.17 minutes
	total time  =        119 seconds =       1.98 minutes

*** tstart() called on skystd18.palmetto.clemson.edu
*** at Fri Nov 26 00:16:29 2021


  //>>>>>>>>>>>>>>>>>>>>>>>>>>>>>>>>>>>//
  //               DFMP2               //
  //<<<<<<<<<<<<<<<<<<<<<<<<<<<<<<<<<<<//

   => Loading Basis Set <=

    Name: (CC-PVTZ AUX)
    Role: RIFIT
    Keyword: DF_BASIS_MP2
    atoms 1-12         entry C          line   209 file /home/maxbuskirk/.conda/envs/psifour/share/psi4/basis/cc-pvtz-ri.gbs 
    atoms 13-14, 16-27 entry H          line    19 file /home/maxbuskirk/.conda/envs/psifour/share/psi4/basis/cc-pvtz-ri.gbs 
    atoms 15           entry O          line   305 file /home/maxbuskirk/.conda/envs/psifour/share/psi4/basis/cc-pvtz-ri.gbs 

	 --------------------------------------------------------
	                          DF-MP2                         
	      2nd-Order Density-Fitted Moller-Plesset Theory     
	              RMP2 Wavefunction,   1 Threads             
	                                                         
	        Rob Parrish, Justin Turney, Andy Simmonett,      
	           Ed Hohenstein, and C. David Sherrill          
	 --------------------------------------------------------

   => Auxiliary Basis Set <=

  Basis Set: (CC-PVTZ AUX)
    Blend: CC-PVTZ-RI
    Number of shells: 439
    Number of basis functions: 1473
    Number of Cartesian functions: 1803
    Spherical Harmonics?: true
    Max angular momentum: 4

	 --------------------------------------------------------
	                 NBF =   586, NAUX =  1473
	 --------------------------------------------------------
	   CLASS    FOCC     OCC    AOCC    AVIR     VIR    FVIR
	   PAIRS       0      47      47     539     539       0
	 --------------------------------------------------------


         ------------------------------------------------------------
                                     CPHF                           
                                  Rob Parrish                       
         ------------------------------------------------------------

  ==> Geometry <==

    Molecular point group: c1
    Full point group: C1

    Geometry (in Angstrom), charge = 0, multiplicity = 1:

       Center              X                  Y                   Z               Mass       
    ------------   -----------------  -----------------  -----------------  -----------------
         C            1.501735541197     0.647962265286    -2.008527353370    12.000000000000
         C            1.146605541197     0.536741265286    -0.541115353370    12.000000000000
         C            1.974705541197     1.418646265286     0.412419646630    12.000000000000
         C            3.238160541197     0.588551265286     0.713808646630    12.000000000000
         C            3.517558541197    -0.186251734714    -0.590478353370    12.000000000000
         C            2.130161541197    -0.451604734714    -1.174625353370    12.000000000000
         C           -0.226970458803     0.123520265286    -0.126667353370    12.000000000000
         C           -0.396186458803    -0.784825734714     0.939429646630    12.000000000000
         C           -1.678453458803    -1.155592734714     1.370754646630    12.000000000000
         C           -2.815067458803    -0.622557734714     0.738797646630    12.000000000000
         C           -2.659047458803     0.282805265286    -0.322896353370    12.000000000000
         C           -1.373230458803     0.654133265286    -0.749122353370    12.000000000000
         H           -1.251826458803     1.366039265286    -1.571926353370     1.007825032230
         H           -3.539813458803     0.702464265286    -0.818776353370     1.007825032230
         O           -4.077593458803    -0.990080734714     1.157549646630    15.994914619570
         H           -1.792575458803    -1.865753734714     2.195614646630     1.007825032230
         H            0.489905541197    -1.210236734714     1.423354646630     1.007825032230
         H            1.806042541197    -1.478319734714    -1.369111353370     1.007825032230
         H            0.740865541197     0.348573265286    -2.734880353370     1.007825032230
         H            2.143051541197     1.480017265286    -2.318337353370     1.007825032230
         H            4.068394541197    -1.122442734714    -0.407016353370     1.007825032230
         H            4.126288541197     0.421405265286    -1.283895353370     1.007825032230
         H            3.003093541197    -0.136209734714     1.513510646630     1.007825032230
         H            4.092149541197     1.197973265286     1.054997646630     1.007825032230
         H            1.403236541197     1.659274265286     1.322752646630     1.007825032230
         H            2.238952541197     2.374512265286    -0.075056353370     1.007825032230
         H           -4.726831458803    -0.544350734714     0.631599646630     1.007825032230

  Nuclear repulsion =  759.887152103648532
  Reference energy  = -537.571150122187760

  ==> Basis Set <==

  Basis Set: CC-PVTZ
    Blend: CC-PVTZ
    Number of shells: 214
    Number of basis functions: 586
    Number of Cartesian functions: 665
    Spherical Harmonics?: true
    Max angular momentum: 3

  ==> CGRSolver (by Rob Parrish) <==

   Number of roots    =         1
   Preconditioning    =    JACOBI
   Convergence cutoff =     1E-06
   Maximum iterations =       100

  ==> CPHFRHamiltonian (by Rob Parrish) <== 

  ==> DiskDFJK: Density-Fitted J/K Matrices <==

    J tasked:                  Yes
    K tasked:                  Yes
    wK tasked:                  No
    OpenMP threads:              1
    Integrals threads:           1
    Memory [MiB]:              375
    Algorithm:                Disk
    Integral Cache:           NONE
    Schwarz Cutoff:          1E-12
    Fitting Condition:       1E-10

   => Auxiliary Basis Set <=

  Basis Set: (CC-PVTZ AUX)
    Blend: CC-PVTZ-JKFIT
    Number of shells: 465
    Number of basis functions: 1447
    Number of Cartesian functions: 1738
    Spherical Harmonics?: true
    Max angular momentum: 4

  ==> CPHF Iterations <==

  => Iterations <=

             Iter  Converged  Remaining    Residual
  CGR           1          0          1   8.244E-02
  CGR           2          0          1   1.998E-02
  CGR           3          0          1   1.033E-02
  CGR           4          0          1   5.178E-03
  CGR           5          0          1   2.438E-03
  CGR           6          0          1   1.083E-03
  CGR           7          0          1   3.329E-04
  CGR           8          0          1   8.785E-05
  CGR           9          0          1   3.207E-05
  CGR          10          0          1   9.113E-06
  CGR          11          0          1   3.266E-06
  CGR          12          0          1   1.372E-06
  CGR          13          1          0   6.863E-07

    CGRSolver converged.

  ==> DFCorrGrad: Density-Fitted Correlated Gradients <==

    OpenMP threads:              1
    Integrals threads:           1
    Memory [GiB]:            0.366
    Schwarz Cutoff:          0E+00
    Fitting Condition:       1E-10

   => Auxiliary Basis Set <=

  Basis Set: (CC-PVTZ AUX)
    Blend: CC-PVTZ-JKFIT
    Number of shells: 465
    Number of basis functions: 1447
    Number of Cartesian functions: 1738
    Spherical Harmonics?: true
    Max angular momentum: 4

	-----------------------------------------------------------
	 ==================> DF-MP2 Energies <==================== 
	-----------------------------------------------------------
	 Reference Energy          =    -537.5711501221877597 [Eh]
	 Singles Energy            =      -0.0000000000000000 [Eh]
	 Same-Spin Energy          =      -0.5826269783601183 [Eh]
	 Opposite-Spin Energy      =      -1.8163243639754123 [Eh]
	 Correlation Energy        =      -2.3989513423355309 [Eh]
	 Total Energy              =    -539.9701014645232817 [Eh]
	-----------------------------------------------------------
	 ================> DF-SCS-MP2 Energies <================== 
	-----------------------------------------------------------
	 SCS Same-Spin Scale       =       0.3333333333333333 [-]
	 SCS Opposite-Spin Scale   =       1.2000000000000000 [-]
	 SCS Same-Spin Energy      =      -0.1942089927867061 [Eh]
	 SCS Opposite-Spin Energy  =      -2.1795892367704948 [Eh]
	 SCS Correlation Energy    =      -2.3737982295572007 [Eh]
	 SCS Total Energy          =    -539.9449483517449835 [Eh]
	-----------------------------------------------------------


  -Total Gradient:
     Atom            X                  Y                   Z
    ------   -----------------  -----------------  -----------------
       1        0.000217084330     0.000372643704    -0.002592008127
       2       -0.001172036170     0.003679079081     0.003096100893
       3        0.001448723241    -0.002372118852    -0.000017487636
       4       -0.001362077504     0.000333012373    -0.002857115494
       5       -0.002161121650     0.001202226414     0.001742522540
       6        0.004539998174    -0.001904294380    -0.000909425482
       7        0.001860217089    -0.000220372681    -0.000564924778
       8        0.007456635904    -0.004106692568     0.005051676945
       9        0.000307975516     0.000824383752    -0.000803598623
      10        0.002502875997    -0.006426445862     0.007570449185
      11       -0.009049643897    -0.000100451962    -0.000094932894
      12       -0.000226801671     0.004562857555    -0.005068374970
      13        0.001699574481     0.007585190584    -0.008671559723
      14       -0.008257981339     0.004492569531    -0.005253139357
      15       -0.025764667839     0.010525555001    -0.012536578664
      16        0.001042225201    -0.008063211199     0.009410718378
      17        0.010135714319    -0.004138758303     0.004631440672
      18       -0.003372642057    -0.010822813143    -0.002028932256
      19       -0.007631022822    -0.002855258650    -0.007542572521
      20        0.006137717300     0.008384069146    -0.003438282004
      21        0.005479484990    -0.008980561798     0.001566028425
      22        0.005973236949     0.005334432657    -0.006451620019
      23       -0.001832186428    -0.006671860637     0.007914269236
      24        0.008409410657     0.005947132569     0.003474131467
      25       -0.005296038263     0.002723186049     0.008659833140
      26        0.002218431780     0.009069722006    -0.004130461660
      27        0.006696913709    -0.008373220391     0.009843843321


*** tstop() called on skystd18.palmetto.clemson.edu at Fri Nov 26 00:26:24 2021
Module time:
	user time   =     578.57 seconds =       9.64 minutes
	system time =      15.29 seconds =       0.25 minutes
	total time  =        595 seconds =       9.92 minutes
Total time:
	user time   =     687.38 seconds =      11.46 minutes
	system time =      25.74 seconds =       0.43 minutes
	total time  =        714 seconds =      11.90 minutes

			-----------------------------------------
			 OPTKING 2.0: for geometry optimizations 
			  - R.A. King,  Bethel University        
			-----------------------------------------

	Internal coordinates to be generated automatically.
	Detected frag 1 with atoms:  1 2 3 4 5 6 7 8 9 10 11 12 13 14 15 16 17 18 19 20
	 21 22 23 24 25 26 27
	---Fragment 1 Bond Connectivity---
	 1 : 2 6 19 20
	 2 : 1 3 6 7
	 3 : 2 4 25 26
	 4 : 3 5 23 24
	 5 : 4 6 21 22
	 6 : 1 2 5 18
	 7 : 2 8 12
	 8 : 7 9 17
	 9 : 8 10 16
	 10 : 9 11 15
	 11 : 10 12 14
	 12 : 7 11 13
	 13 : 12
	 14 : 11
	 15 : 10 27
	 16 : 9
	 17 : 8
	 18 : 6
	 19 : 1
	 20 : 1
	 21 : 5
	 22 : 5
	 23 : 4
	 24 : 4
	 25 : 3
	 26 : 3
	 27 : 15

	---Fragment 1 Geometry and Gradient---
	 C           2.8378688857        1.2244712210       -3.7955666134
	 C           2.1667704468        1.0142939916       -1.0225598201
	 C           3.7316526513        2.6808529103        0.7793601809
	 C           6.1192365731        1.1122007022        1.3489028481
	 C           6.6472222731       -0.3519647690       -1.1158423709
	 C           4.0254219158       -0.8534092656       -2.2197202179
	 C          -0.4289120057        0.2334194723       -0.2393666069
	 C          -0.7486839018       -1.4831056948        1.7752647463
	 C          -3.1718173515       -2.1837537812        2.5903508673
	 C          -5.3197065218       -1.1764636159        1.3961252143
	 C          -5.0248714517        0.5344244982       -0.6101856748
	 C          -2.5950294743        1.2361327209       -1.4156360823
	 H          -2.3656091637        2.5814400880       -2.9705102973
	 H          -6.6892779723        1.3274650743       -1.5472630659
	 O          -7.7055348881       -1.8709814307        2.1874518088
	 H          -3.3874766764       -3.5257635762        4.1491103592
	 H           0.9257873002       -2.2870159756        2.6897504615
	 H           3.4129257738       -2.7936194245       -2.5872454931
	 H           1.4000329687        0.6587080060       -5.1681748538
	 H           4.0497804856        2.7968272923       -4.3810226643
	 H           7.6881514532       -2.1211093601       -0.7691494365
	 H           7.7975552575        0.7963405392       -2.4262105916
	 H           5.6750243220       -0.2573990942        2.8601206101
	 H           7.7330418973        2.2638413770        1.9936566151
	 H           2.6517327521        3.1355739284        2.4996402339
	 H           4.2310071108        4.4871778629       -0.1418359518
	 H          -8.9324168983       -1.0286738048        1.1935503531
	             0.0002170843        0.0003726437       -0.0025920081
	            -0.0011720362        0.0036790791        0.0030961009
	             0.0014487232       -0.0023721189       -0.0000174876
	            -0.0013620775        0.0003330124       -0.0028571155
	            -0.0021611216        0.0012022264        0.0017425225
	             0.0045399982       -0.0019042944       -0.0009094255
	             0.0018602171       -0.0002203727       -0.0005649248
	             0.0074566359       -0.0041066926        0.0050516769
	             0.0003079755        0.0008243838       -0.0008035986
	             0.0025028760       -0.0064264459        0.0075704492
	            -0.0090496439       -0.0001004520       -0.0000949329
	            -0.0002268017        0.0045628576       -0.0050683750
	             0.0016995745        0.0075851906       -0.0086715597
	            -0.0082579813        0.0044925695       -0.0052531394
	            -0.0257646678        0.0105255550       -0.0125365787
	             0.0010422252       -0.0080632112        0.0094107184
	             0.0101357143       -0.0041387583        0.0046314407
	            -0.0033726421       -0.0108228131       -0.0020289323
	            -0.0076310228       -0.0028552586       -0.0075425725
	             0.0061377173        0.0083840691       -0.0034382820
	             0.0054794850       -0.0089805618        0.0015660284
	             0.0059732369        0.0053344327       -0.0064516200
	            -0.0018321864       -0.0066718606        0.0079142692
	             0.0084094107        0.0059471326        0.0034741315
	            -0.0052960383        0.0027231860        0.0086598331
	             0.0022184318        0.0090697220       -0.0041304617
	             0.0066969137       -0.0083732204        0.0098438433

	Previous optimization step data not found.  Starting new optimization.

	---Fragment 1 Intrafragment Coordinates---
	 - Coordinate -           - BOHR/RAD -       - ANG/DEG -
	 R(1,2)           =         2.860789	       1.513864
	 R(1,6)           =         2.865512	       1.516364
	 R(1,19)          =         2.066764	       1.093684
	 R(1,20)          =         2.069732	       1.095255
	 R(2,3)           =         2.910875	       1.540368
	 R(2,6)           =         2.894148	       1.531517
	 R(2,7)           =         2.821476	       1.493061
	 R(3,4)           =         2.913006	       1.541497
	 R(3,25)          =         2.081433	       1.101447
	 R(3,26)          =         2.088245	       1.105052
	 R(4,5)           =         2.915050	       1.542578
	 R(4,23)          =         2.087321	       1.104562
	 R(4,24)          =         2.084790	       1.103224
	 R(5,6)           =         2.888569	       1.528565
	 R(5,21)          =         2.081731	       1.101604
	 R(5,22)          =         2.087806	       1.104820
	 R(6,18)          =         2.067521	       1.094085
	 R(7,8)           =         2.665981	       1.410776
	 R(7,12)          =         2.661035	       1.408159
	 R(8,9)           =         2.650820	       1.402754
	 R(8,17)          =         2.070365	       1.095590
	 R(9,10)          =         2.655981	       1.405485
	 R(9,16)          =         2.068147	       1.094416
	 R(10,11)         =         2.653177	       1.404001
	 R(10,15)         =         2.607821	       1.379999
	 R(11,12)         =         2.654294	       1.404592
	 R(11,14)         =         2.068158	       1.094422
	 R(12,13)         =         2.068845	       1.094786
	 R(15,27)         =         1.789570	       0.947000
	 B(1,2,3)         =         2.017351	     115.585685
	 B(1,2,6)         =         1.042344	      59.721936
	 B(1,2,7)         =         2.100422	     120.345328
	 B(1,6,2)         =         1.039528	      59.560564
	 B(1,6,5)         =         2.049282	     117.415187
	 B(1,6,18)        =         2.048738	     117.384025
	 B(2,1,6)         =         1.059720	      60.717500
	 B(2,1,19)        =         2.049292	     117.415782
	 B(2,1,20)        =         2.057096	     117.862942
	 B(2,3,4)         =         1.826944	     104.676198
	 B(2,3,25)        =         1.936680	     110.963570
	 B(2,3,26)        =         1.929130	     110.530986
	 B(2,6,5)         =         1.888930	     108.227717
	 B(2,6,18)        =         2.081600	     119.266883
	 B(2,7,8)         =         2.092441	     119.888038
	 B(2,7,12)        =         2.119852	     121.458574
	 B(3,2,6)         =         1.854886	     106.277162
	 B(3,2,7)         =         2.072817	     118.763664
	 B(3,4,5)         =         1.827213	     104.691617
	 B(3,4,23)        =         1.897014	     108.690913
	 B(3,4,24)        =         1.979545	     113.419580
	 B(4,3,25)        =         1.962002	     112.414409
	 B(4,3,26)        =         1.934839	     110.858094
	 B(4,5,6)         =         1.819262	     104.236043
	 B(4,5,21)        =         1.956931	     112.123910
	 B(4,5,22)        =         1.932871	     110.745342
	 B(5,4,23)        =         1.897723	     108.731493
	 B(5,4,24)        =         1.980944	     113.499740
	 B(5,6,18)        =         2.094079	     119.981893
	 B(6,1,19)        =         2.043221	     117.067911
	 B(6,1,20)        =         2.053042	     117.630648
	 B(6,2,7)         =         2.125903	     121.805252
	 B(6,5,21)        =         1.949769	     111.713517
	 B(6,5,22)        =         1.934481	     110.837597
	 B(7,8,9)         =         2.108523	     120.809467
	 B(7,8,17)        =         2.079202	     119.129487
	 B(7,12,11)       =         2.107639	     120.758819
	 B(7,12,13)       =         2.079425	     119.142292
	 B(8,7,12)        =         2.070330	     118.621159
	 B(8,9,10)        =         2.095249	     120.048921
	 B(8,9,16)        =         2.092759	     119.906259
	 B(9,8,17)        =         2.095393	     120.057181
	 B(9,10,11)       =         2.088291	     119.650243
	 B(9,10,15)       =         2.097186	     120.159930
	 B(10,9,16)       =         2.095155	     120.043517
	 B(10,11,12)      =         2.096327	     120.110679
	 B(10,11,14)      =         2.094932	     120.030779
	 B(10,15,27)      =         1.910634	     109.471290
	 B(11,10,15)      =         2.097704	     120.189603
	 B(11,12,13)      =         2.096116	     120.098614
	 B(12,11,14)      =         2.091924	     119.858405
	 B(19,1,20)       =         2.012474	     115.306264
	 B(21,5,22)       =         1.871758	     107.243849
	 B(23,4,24)       =         1.878938	     107.655190
	 B(25,3,26)       =         1.875161	     107.438837
	 D(1,2,3,4)       =        -1.487484	     -85.226572
	 D(1,2,3,25)      =         2.675187	     153.276932
	 D(1,2,3,26)      =         0.596675	      34.186976
	 D(1,2,6,5)       =         1.948453	     111.638142
	 D(1,2,6,18)      =        -1.856921	    -106.393716
	 D(1,2,7,8)       =         2.408854	     138.017151
	 D(1,2,7,12)      =        -0.769280	     -44.076485
	 D(1,6,2,3)       =        -1.928884	    -110.516925
	 D(1,6,2,7)       =         1.903190	     109.044759
	 D(1,6,5,4)       =         1.468895	      84.161501
	 D(1,6,5,21)      =        -2.697521	    -154.556588
	 D(1,6,5,22)      =        -0.611214	     -35.019998
	 D(2,1,6,5)       =        -1.674893	     -95.964306
	 D(2,1,6,18)      =         1.911561	     109.524357
	 D(2,3,4,5)       =         0.589407	      33.770540
	 D(2,3,4,23)      =        -1.436065	     -82.280465
	 D(2,3,4,24)      =         2.757968	     158.019943
	 D(2,6,1,19)      =        -1.882068	    -107.834530
	 D(2,6,1,20)      =         1.887309	     108.134828
	 D(2,6,5,4)       =         0.342659	      19.632931
	 D(2,6,5,21)      =         2.459428	     140.914841
	 D(2,6,5,22)      =        -1.737450	     -99.548568
	 D(2,7,8,9)       =         3.108309	     178.092997
	 D(2,7,8,17)      =        -0.045760	      -2.621861
	 D(2,7,12,11)     =        -3.110817	    -178.236678
	 D(2,7,12,13)     =         0.027453	       1.572949
	 D(3,2,1,6)       =         1.651177	      94.605460
	 D(3,2,1,19)      =        -2.759824	    -158.126276
	 D(3,2,1,20)      =        -0.229547	     -13.152074
	 D(3,2,6,5)       =         0.019569	       1.121217
	 D(3,2,6,18)      =         2.497380	     143.089359
	 D(3,2,7,8)       =        -1.201325	     -68.830845
	 D(3,2,7,12)      =         1.903727	     109.075519
	 D(3,4,5,6)       =        -0.573602	     -32.864999
	 D(3,4,5,21)      =        -2.685602	    -153.873654
	 D(3,4,5,22)      =         1.507600	      86.379143
	 D(4,3,2,6)       =        -0.375127	     -21.493186
	 D(4,3,2,7)       =         2.100956	     120.375901
	 D(4,5,6,18)      =        -2.129570	    -122.015351
	 D(5,4,3,25)      =         2.693170	     154.307289
	 D(5,4,3,26)      =        -1.490910	     -85.422842
	 D(5,6,1,19)      =         2.726225	     156.201164
	 D(5,6,1,20)      =         0.212416	      12.170522
	 D(5,6,2,7)       =        -2.431542	    -139.317099
	 D(6,1,2,7)       =        -1.944837	    -111.430967
	 D(6,2,1,19)      =         1.872184	     107.268264
	 D(6,2,1,20)      =        -1.880724	    -107.757534
	 D(6,2,3,25)      =        -2.495641	    -142.989682
	 D(6,2,3,26)      =         1.709033	      97.920361
	 D(6,2,7,8)       =         1.168456	      66.947624
	 D(6,2,7,12)      =        -2.009677	    -115.146011
	 D(6,5,4,23)      =         1.451379	      83.157872
	 D(6,5,4,24)      =        -2.741271	    -157.063259
	 D(7,2,1,19)      =        -0.072653	      -4.162703
	 D(7,2,1,20)      =         2.457624	     140.811498
	 D(7,2,3,25)      =        -0.019558	      -1.120595
	 D(7,2,3,26)      =        -2.098070	    -120.210552
	 D(7,2,6,18)      =         0.046269	       2.651043
	 D(7,8,9,10)      =         0.001304	       0.074700
	 D(7,8,9,16)      =         3.135653	     179.659684
	 D(7,12,11,10)    =         0.004887	       0.280010
	 D(7,12,11,14)    =        -3.139052	    -179.854428
	 D(8,7,12,11)     =        -0.005315	      -0.304531
	 D(8,7,12,13)     =         3.132955	     179.505096
	 D(8,9,10,11)     =        -0.001796	      -0.102888
	 D(8,9,10,15)     =         3.136800	     179.725380
	 D(9,8,7,12)      =         0.002225	       0.127485
	 D(9,10,11,12)    =        -0.001268	      -0.072650
	 D(9,10,11,14)    =        -3.140510	    -179.937978
	 D(9,10,15,27)    =         3.141593	     180.000000
	 D(10,9,8,17)     =        -3.127697	    -179.203838
	 D(10,11,12,13)   =        -3.133351	    -179.527802
	 D(11,10,9,16)    =        -3.136135	    -179.687298
	 D(11,10,15,27)   =        -0.003014	      -0.172692
	 D(12,7,8,17)     =         3.131341	     179.412627
	 D(12,11,10,15)   =        -3.139862	    -179.900866
	 D(13,12,11,14)   =         0.005895	       0.337760
	 D(14,11,10,15)   =         0.004081	       0.233806
	 D(15,10,9,16)    =         0.002460	       0.140969
	 D(16,9,8,17)     =         0.006652	       0.381147
	 D(18,6,1,19)     =         0.029493	       1.689827
	 D(18,6,1,20)     =        -2.484316	    -142.340815
	 D(18,6,5,21)     =        -0.012801	      -0.733441
	 D(18,6,5,22)     =         2.073506	     118.803150
	 D(21,5,4,23)     =        -0.660621	     -37.850783
	 D(21,5,4,24)     =         1.429915	      81.928087
	 D(22,5,4,23)     =        -2.750604	    -157.597986
	 D(22,5,4,24)     =        -0.660068	     -37.819116
	 D(23,4,3,25)     =         0.667698	      38.256283
	 D(23,4,3,26)     =         2.766803	     158.526152
	 D(24,4,3,25)     =        -1.421454	     -81.443309
	 D(24,4,3,26)     =         0.677651	      38.826560

	Current energy   :      -539.9701014645

	Generating empirical Hessian (Schlegel '84) for each fragment.
	Taking RFO optimization step.
	Going to follow RFO solution 1.
	Using RFO vector 1.
	Norm of target step-size    0.18996
	Projected energy change by RFO approximation:        -0.0123635984

	Back-transformation to cartesian coordinates...
	Could not converge backtransformation.
	Using first guess instead.

	--- Internal Coordinate Step in ANG or DEG, aJ/ANG or AJ/DEG ---
	 ---------------------------------------------------------------------------
	   Coordinate                Previous        Force       Change         New 
	   ----------                --------       ------       ------       ------
	    1 R(1,2)          =      1.513864    -0.074612    -0.015294     1.498570
	    2 R(1,6)          =      1.516364    -0.068406    -0.013302     1.503062
	    3 R(1,19)         =      1.093684    -0.091448    -0.016464     1.077220
	    4 R(1,20)         =      1.095255    -0.090097    -0.016290     1.078965
	    5 R(2,3)          =      1.540368    -0.076773    -0.016743     1.523626
	    6 R(2,6)          =      1.531517    -0.070281    -0.015218     1.516299
	    7 R(2,7)          =      1.493061    -0.103777    -0.019382     1.473678
	    8 R(3,4)          =      1.541497    -0.067232    -0.014245     1.527251
	    9 R(3,25)         =      1.101447    -0.086506    -0.015971     1.085476
	   10 R(3,26)         =      1.105052    -0.084017    -0.015684     1.089368
	   11 R(4,5)          =      1.542578    -0.067838    -0.014303     1.528275
	   12 R(4,23)         =      1.104562    -0.086487    -0.016101     1.088461
	   13 R(4,24)         =      1.103224    -0.089549    -0.016618     1.086606
	   14 R(5,6)          =      1.528565    -0.072848    -0.015283     1.513282
	   15 R(5,21)         =      1.101604    -0.087601    -0.016179     1.085425
	   16 R(5,22)         =      1.104820    -0.084647    -0.015795     1.089025
	   17 R(6,18)         =      1.094085    -0.094879    -0.017105     1.076980
	   18 R(7,8)          =      1.410776    -0.131446    -0.018733     1.392043
	   19 R(7,12)         =      1.408159    -0.144642    -0.020366     1.387793
	   20 R(8,9)          =      1.402754    -0.141403    -0.019630     1.383124
	   21 R(8,17)         =      1.095590    -0.097632    -0.017658     1.077931
	   22 R(9,10)         =      1.405485    -0.162139    -0.022637     1.382848
	   23 R(9,16)         =      1.094416    -0.100647    -0.018061     1.076355
	   24 R(10,11)        =      1.404001    -0.115526    -0.015970     1.388031
	   25 R(10,15)        =      1.379999    -0.132267    -0.015866     1.364133
	   26 R(11,12)        =      1.404592    -0.139628    -0.019358     1.385233
	   27 R(11,14)        =      1.094422    -0.088556    -0.015974     1.078448
	   28 R(12,13)        =      1.094786    -0.095883    -0.017320     1.077466
	   29 R(15,27)        =      0.947000     0.115337     0.012439     0.959439
	   30 B(1,2,3)        =    115.585685    -0.000010    -0.157419   115.428266
	   31 B(1,2,6)        =     59.721936     0.000014     0.082799    59.804735
	   32 B(1,2,7)        =    120.345328    -0.000004     0.011316   120.356644
	   33 B(1,6,2)        =     59.560564    -0.000021    -0.048777    59.511787
	   34 B(1,6,5)        =    117.415187    -0.000006    -0.124748   117.290439
	   35 B(1,6,18)       =    117.384025     0.000009     0.037874   117.421899
	   36 B(2,1,6)        =     60.717500     0.000007    -0.034022    60.683478
	   37 B(2,1,19)       =    117.415782    -0.000014    -0.031703   117.384079
	   38 B(2,1,20)       =    117.862942    -0.000004    -0.049874   117.813067
	   39 B(2,3,4)        =    104.676198     0.000004    -0.060971   104.615227
	   40 B(2,3,25)       =    110.963570    -0.000015    -0.122417   110.841153
	   41 B(2,3,26)       =    110.530986    -0.000003    -0.019035   110.511951
	   42 B(2,6,5)        =    108.227717     0.000018     0.041834   108.269551
	   43 B(2,6,18)       =    119.266883    -0.000001    -0.001120   119.265763
	   44 B(2,7,8)        =    119.888038     0.000077     0.232104   120.120142
	   45 B(2,7,12)       =    121.458574     0.000057     0.173973   121.632547
	   46 B(3,2,6)        =    106.277162     0.000003     0.044569   106.321732
	   47 B(3,2,7)        =    118.763664     0.000009     0.061359   118.825023
	   48 B(3,4,5)        =    104.691617    -0.000009     0.005399   104.697016
	   49 B(3,4,23)       =    108.690913    -0.000005    -0.096315   108.594598
	   50 B(3,4,24)       =    113.419580     0.000003     0.016256   113.435836
	   51 B(4,3,25)       =    112.414409    -0.000003    -0.009902   112.404507
	   52 B(4,3,26)       =    110.858094    -0.000005    -0.027702   110.830391
	   53 B(4,5,6)        =    104.236043    -0.000017    -0.108622   104.127421
	   54 B(4,5,21)       =    112.123910     0.000003    -0.010957   112.112953
	   55 B(4,5,22)       =    110.745342    -0.000003    -0.051837   110.693506
	   56 B(5,4,23)       =    108.731493    -0.000008    -0.113091   108.618402
	   57 B(5,4,24)       =    113.499740     0.000004     0.010869   113.510609
	   58 B(5,6,18)       =    119.981893    -0.000004     0.053574   120.035467
	   59 B(6,1,19)       =    117.067911    -0.000012    -0.027401   117.040510
	   60 B(6,1,20)       =    117.630648    -0.000008    -0.100636   117.530012
	   61 B(6,2,7)        =    121.805252    -0.000010    -0.020717   121.784535
	   62 B(6,5,21)       =    111.713517     0.000003     0.008779   111.722296
	   63 B(6,5,22)       =    110.837597     0.000001    -0.029599   110.807998
	   64 B(7,8,9)        =    120.809467     0.000213     0.659223   121.468690
	   65 B(7,8,17)       =    119.129487    -0.000032    -0.001042   119.128445
	   66 B(7,12,11)      =    120.758819     0.000015     0.063713   120.822532
	   67 B(7,12,13)      =    119.142292     0.000025     0.112348   119.254641
	   68 B(8,7,12)       =    118.621159    -0.000134    -0.403221   118.217938
	   69 B(8,9,10)       =    120.048921    -0.000141    -0.488104   119.560818
	   70 B(8,9,16)       =    119.906259     0.000254     1.056215   120.962475
	   71 B(9,8,17)       =    120.057181    -0.000180    -0.657520   119.399661
	   72 B(9,10,11)      =    119.650243     0.000065     0.196545   119.846788
	   73 B(9,10,15)      =    120.159930    -0.000837    -2.434853   117.725077
	   74 B(10,9,16)      =    120.043517    -0.000113    -0.568132   119.475384
	   75 B(10,11,12)     =    120.110679    -0.000017    -0.027894   120.082785
	   76 B(10,11,14)     =    120.030779    -0.000043    -0.215691   119.815088
	   77 B(10,15,27)     =    109.471290    -0.000543    -2.390106   107.081185
	   78 B(11,10,15)     =    120.189603     0.000773     2.238159   122.427762
	   79 B(11,12,13)     =    120.098614    -0.000040    -0.175989   119.922624
	   80 B(12,11,14)     =    119.858405     0.000061     0.243671   120.102077
	   81 B(19,1,20)      =    115.306264     0.000021     0.139766   115.446030
	   82 B(21,5,22)      =    107.243849     0.000012     0.180651   107.424500
	   83 B(23,4,24)      =    107.655190     0.000013     0.158622   107.813812
	   84 B(25,3,26)      =    107.438837     0.000020     0.227161   107.665998
	   85 D(1,2,3,4)      =    -85.226572    -0.000003    -0.176136   -85.402708
	   86 D(1,2,3,25)     =    153.276932    -0.000001    -0.061155   153.215777
	   87 D(1,2,3,26)     =     34.186976    -0.000004    -0.253800    33.933175
	   88 D(1,2,6,5)      =    111.638142    -0.000004    -0.172497   111.465645
	   89 D(1,2,6,18)     =   -106.393716    -0.000001    -0.027071  -106.420786
	   90 D(1,2,7,8)      =    138.017151     0.000004     0.461130   138.478281
	   91 D(1,2,7,12)     =    -44.076485     0.000004     0.548012   -43.528473
	   92 D(1,6,2,3)      =   -110.516925     0.000003     0.197821  -110.319105
	   93 D(1,6,2,7)      =    109.044759     0.000001     0.060029   109.104788
	   94 D(1,6,5,4)      =     84.161501    -0.000002    -0.013394    84.148108
	   95 D(1,6,5,21)     =   -154.556588    -0.000003    -0.089116  -154.645704
	   96 D(1,6,5,22)     =    -35.019998     0.000001     0.125245   -34.894752
	   97 D(2,1,6,5)      =    -95.964306    -0.000004    -0.096817   -96.061123
	   98 D(2,1,6,18)     =    109.524357    -0.000003    -0.034696   109.489660
	   99 D(2,3,4,5)      =     33.770540     0.000000     0.116440    33.886980
	  100 D(2,3,4,23)     =    -82.280465     0.000004     0.287658   -81.992807
	  101 D(2,3,4,24)     =    158.019943     0.000000     0.143779   158.163722
	  102 D(2,6,1,19)     =   -107.834530     0.000002     0.038527  -107.796002
	  103 D(2,6,1,20)     =    108.134828     0.000000    -0.030266   108.104562
	  104 D(2,6,5,4)      =     19.632931     0.000002     0.039223    19.672154
	  105 D(2,6,5,21)     =    140.914841     0.000001    -0.036499   140.878343
	  106 D(2,6,5,22)     =    -99.548568     0.000005     0.177862   -99.370706
	  107 D(2,7,8,9)      =    178.092997     0.000000     0.015804   178.108801
	  108 D(2,7,8,17)     =     -2.621861     0.000001     0.075411    -2.546450
	  109 D(2,7,12,11)    =   -178.236678    -0.000000    -0.008555  -178.245234
	  110 D(2,7,12,13)    =      1.572949     0.000000     0.017999     1.590948
	  111 D(3,2,1,6)      =     94.605460     0.000003     0.176619    94.782079
	  112 D(3,2,1,19)     =   -158.126276     0.000002     0.144604  -157.981672
	  113 D(3,2,1,20)     =    -13.152074     0.000005     0.289833   -12.862241
	  114 D(3,2,6,5)      =      1.121217    -0.000001     0.025324     1.146541
	  115 D(3,2,6,18)     =    143.089359     0.000002     0.170750   143.260109
	  116 D(3,2,7,8)      =    -68.830845     0.000001     0.219109   -68.611736
	  117 D(3,2,7,12)     =    109.075519     0.000001     0.305991   109.381510
	  118 D(3,4,5,6)      =    -32.864999     0.000001    -0.081198   -32.946197
	  119 D(3,4,5,21)     =   -153.873654     0.000002    -0.017917  -153.891571
	  120 D(3,4,5,22)     =     86.379143    -0.000002    -0.204486    86.174658
	  121 D(4,3,2,6)      =    -21.493186     0.000000    -0.081122   -21.574308
	  122 D(4,3,2,7)      =    120.375901    -0.000000     0.013409   120.389310
	  123 D(4,5,6,18)     =   -122.015351    -0.000002    -0.083022  -122.098373
	  124 D(5,4,3,25)     =    154.307289    -0.000004    -0.075786   154.231503
	  125 D(5,4,3,26)     =    -85.422842     0.000001     0.188663   -85.234179
	  126 D(5,6,1,19)     =    156.201164    -0.000001    -0.058289   156.142874
	  127 D(5,6,1,20)     =     12.170522    -0.000003    -0.127082    12.043439
	  128 D(5,6,2,7)      =   -139.317099    -0.000003    -0.112468  -139.429567
	  129 D(6,1,2,7)      =   -111.430967     0.000001    -0.003282  -111.434249
	  130 D(6,2,1,19)     =    107.268264    -0.000001    -0.032015   107.236249
	  131 D(6,2,1,20)     =   -107.757534     0.000001     0.113214  -107.644321
	  132 D(6,2,3,25)     =   -142.989682     0.000002     0.033859  -142.955823
	  133 D(6,2,3,26)     =     97.920361    -0.000001    -0.158786    97.761575
	  134 D(6,2,7,8)      =     66.947624     0.000001     0.361333    67.308958
	  135 D(6,2,7,12)     =   -115.146011     0.000002     0.448215  -114.697796
	  136 D(6,5,4,23)     =     83.157872    -0.000003    -0.240807    82.917065
	  137 D(6,5,4,24)     =   -157.063259     0.000001    -0.111995  -157.175254
	  138 D(7,2,1,19)     =     -4.162703    -0.000000    -0.035298    -4.198001
	  139 D(7,2,1,20)     =    140.811498     0.000002     0.109931   140.921430
	  140 D(7,2,3,25)     =     -1.120595     0.000002     0.128390    -0.992205
	  141 D(7,2,3,26)     =   -120.210552    -0.000001    -0.064255  -120.274807
	  142 D(7,2,6,18)     =      2.651043     0.000001     0.032958     2.684001
	  143 D(7,8,9,10)     =      0.074700     0.000000     0.018133     0.092832
	  144 D(7,8,9,16)     =    179.659684     0.000000     0.012426   179.672110
	  145 D(7,12,11,10)   =      0.280010    -0.000000    -0.037829     0.242180
	  146 D(7,12,11,14)   =   -179.854428     0.000000     0.014693  -179.839736
	  147 D(8,7,12,11)    =     -0.304531     0.000001     0.089408    -0.215124
	  148 D(8,7,12,13)    =    179.505096     0.000001     0.115962   179.621058
	  149 D(8,9,10,11)    =     -0.102888     0.000000     0.034793    -0.068095
	  150 D(8,9,10,15)    =    179.725380     0.000000    -0.010265   179.715115
	  151 D(9,8,7,12)     =      0.127485    -0.000001    -0.079655     0.047830
	  152 D(9,10,11,12)   =     -0.072650    -0.000000    -0.024389    -0.097039
	  153 D(9,10,11,14)   =   -179.937978    -0.000001    -0.077380  -180.015359
	  154 D(9,10,15,27)   =    180.000000     0.000000     0.028155   180.028155
	  155 D(10,9,8,17)    =   -179.203838    -0.000000    -0.046338  -179.250176
	  156 D(10,11,12,13)  =   -179.527802    -0.000001    -0.065111  -179.592913
	  157 D(11,10,9,16)   =   -179.687298     0.000000     0.033613  -179.653685
	  158 D(11,10,15,27)  =     -0.172692    -0.000000    -0.021926    -0.194618
	  159 D(12,7,8,17)    =    179.412627    -0.000000    -0.020048   179.392579
	  160 D(12,11,10,15)  =   -179.900866     0.000000     0.031179  -179.869686
	  161 D(13,12,11,14)  =      0.337760    -0.000000    -0.012589     0.325171
	  162 D(14,11,10,15)  =      0.233806    -0.000000    -0.021812     0.211993
	  163 D(15,10,9,16)   =      0.140969     0.000000    -0.011445     0.129524
	  164 D(16,9,8,17)    =      0.381147    -0.000001    -0.052045     0.329101
	  165 D(18,6,1,19)    =      1.689827    -0.000001     0.003831     1.693658
	  166 D(18,6,1,20)    =   -142.340815    -0.000003    -0.064962  -142.405777
	  167 D(18,6,5,21)    =     -0.733441    -0.000003    -0.158744    -0.892185
	  168 D(18,6,5,22)    =    118.803150     0.000001     0.055617   118.858767
	  169 D(21,5,4,23)    =    -37.850783    -0.000001    -0.177526   -38.028309
	  170 D(21,5,4,24)    =     81.928087     0.000002    -0.048715    81.879372
	  171 D(22,5,4,23)    =   -157.597986    -0.000005    -0.364095  -157.962081
	  172 D(22,5,4,24)    =    -37.819116    -0.000002    -0.235283   -38.054399
	  173 D(23,4,3,25)    =     38.256283     0.000000     0.095433    38.351717
	  174 D(23,4,3,26)    =    158.526152     0.000005     0.359882   158.886035
	  175 D(24,4,3,25)    =    -81.443309    -0.000003    -0.048446   -81.491755
	  176 D(24,4,3,26)    =     38.826560     0.000001     0.216003    39.042563
	 ---------------------------------------------------------------------------
	Successfully symmetrized geometry.

  ==> Convergence Check <==

  Measures of convergence in internal coordinates in au.
  Criteria marked as inactive (o), active & met (*), and active & unmet ( ).
  --------------------------------------------------------------------------------------------- ~
   Step     Total Energy     Delta E     MAX Force     RMS Force      MAX Disp      RMS Disp    ~
  --------------------------------------------------------------------------------------------- ~
    Convergence Criteria    1.00e-06 *    3.00e-04 *             o    1.20e-03 *             o  ~
  --------------------------------------------------------------------------------------------- ~
      1    -539.97010146   -5.40e+02      1.97e-02      5.20e-03 o    4.28e-02      1.43e-02 o  ~
  ---------------------------------------------------------------------------------------------

	Writing optimization data to binary file.
	Structure for next step:
	Cartesian Geometry (in Angstrom)
	    C     1.4916418626   0.6491210495  -1.9878574275
	    C     1.1378603934   0.5343431849  -0.5361763420
	    C     1.9577687191   1.4050023489   0.4078249438
	    C     3.2067229023   0.5785886402   0.7072423189
	    C     3.4840290904  -0.1873652721  -0.5858316655
	    C     2.1096558321  -0.4457102947  -1.1640866066
	    C    -0.2196152399   0.1291521614  -0.1302111617
	    C    -0.3965048091  -0.7630167259   0.9236050559
	    C    -1.6583848879  -1.1323542193   1.3528826508
	    C    -2.7732599855  -0.6087635298   0.7242529028
	    C    -2.6179555788   0.2820254261  -0.3288405850
	    C    -1.3491754192   0.6473221734  -0.7479192597
	    H    -1.2316489065   1.3440554847  -1.5613581938
	    H    -3.4877698804   0.6898569852  -0.8188884598
	    O    -3.9992493801  -1.0030653703   1.1740699829
	    H    -1.7857076908  -1.8269465763   2.1652061728
	    H     0.4707660239  -1.1820843957   1.4075055297
	    H     1.7876845898  -1.4548370338  -1.3587223786
	    H     0.7420698406   0.3587679200  -2.7049630540
	    H     2.1279098428   1.4672668388  -2.2878024850
	    H     4.0241964126  -1.1114118471  -0.4055403604
	    H     4.0840151258   0.4133618081  -1.2678278426
	    H     2.9690579229  -0.1379003011   1.4914019247
	    H     4.0488645528   1.1755750636   1.0465303317
	    H     1.3929369414   1.6407491758   1.3042878993
	    H     2.2220212432   2.3459127633  -0.0734036555
	    H    -4.6546179565  -0.5532533079   0.6367772337
			--------------------------
			 OPTKING Finished Execution 
			--------------------------

    Structure for next step:
    Molecular point group: c1
    Full point group: C1

    Geometry (in Angstrom), charge = 0, multiplicity = 1:

    C            1.484089077308     0.647914274586    -1.987581623422
    C            1.130307606698     0.533136409582    -0.535900532191
    C            1.950215935571     1.403795576933     0.408100757259
    C            3.199170123746     0.577381865078     0.707518133553
    C            3.476476312953    -0.188572050250    -0.585555855868
    C            2.102103049195    -0.446917073927    -1.163810799298
    C           -0.227168031922     0.127945384425    -0.129935350321
    C           -0.404057601796    -0.764223506355     0.923880871450
    C           -1.665937685550    -1.133561001229     1.353158468012
    C           -2.780812787543    -0.609970309655     0.724528717570
    C           -2.625508380265     0.280818649791    -0.328564774439
    C           -1.356728215707     0.646115398536    -0.747643450780
    H           -1.239201702550     1.342848712557    -1.561082388008
    H           -3.495322685240     0.688650210490    -0.818612651084
    O           -4.006802187015    -1.004272151695     1.174345799374
    H           -1.793260488950    -1.828153360904     2.165481993222
    H            0.463213234548    -1.183291177790     1.407781347126
    H            1.780131805656    -1.456043816962    -1.358446572043
    H            0.734517052320     0.357561143977    -2.704687252791
    H            2.120357059943     1.466060067082    -2.287526682119
    H            4.016643637204    -1.112618628921    -0.405264550115
    H            4.076462350653     0.412155032302    -1.267552035738
    H            2.961505143373    -0.139107079104     1.491677742408
    H            4.041311777490     1.174368290760     1.046806147687
    H            1.385384155654     1.639542404800     1.304563716329
    H            2.214468460793     2.344705995083    -0.073127843892
    H           -4.662170766013    -0.554460087519     0.637053048040


Scratch directory: /local_scratch/pbs.4080516.pbs02/
gradient() will perform analytic gradient computation.

*** tstart() called on skystd18.palmetto.clemson.edu
*** at Fri Nov 26 00:26:24 2021

   => Loading Basis Set <=

    Name: CC-PVTZ
    Role: ORBITAL
    Keyword: BASIS
    atoms 1-12         entry C          line   186 file /home/maxbuskirk/.conda/envs/psifour/share/psi4/basis/cc-pvtz.gbs 
    atoms 13-14, 16-27 entry H          line    23 file /home/maxbuskirk/.conda/envs/psifour/share/psi4/basis/cc-pvtz.gbs 
    atoms 15           entry O          line   262 file /home/maxbuskirk/.conda/envs/psifour/share/psi4/basis/cc-pvtz.gbs 


         ---------------------------------------------------------
                                   SCF
               by Justin Turney, Rob Parrish, Andy Simmonett
                          and Daniel G. A. Smith
                              RHF Reference
                        1 Threads,    500 MiB Core
         ---------------------------------------------------------

  ==> Geometry <==

    Molecular point group: c1
    Full point group: C1

    Geometry (in Angstrom), charge = 0, multiplicity = 1:

       Center              X                  Y                   Z               Mass       
    ------------   -----------------  -----------------  -----------------  -----------------
         C            1.484089077308     0.647914274586    -1.987581623422    12.000000000000
         C            1.130307606698     0.533136409582    -0.535900532191    12.000000000000
         C            1.950215935571     1.403795576933     0.408100757259    12.000000000000
         C            3.199170123746     0.577381865078     0.707518133553    12.000000000000
         C            3.476476312953    -0.188572050250    -0.585555855868    12.000000000000
         C            2.102103049195    -0.446917073927    -1.163810799298    12.000000000000
         C           -0.227168031922     0.127945384425    -0.129935350321    12.000000000000
         C           -0.404057601796    -0.764223506355     0.923880871450    12.000000000000
         C           -1.665937685550    -1.133561001229     1.353158468012    12.000000000000
         C           -2.780812787543    -0.609970309655     0.724528717570    12.000000000000
         C           -2.625508380265     0.280818649791    -0.328564774439    12.000000000000
         C           -1.356728215707     0.646115398536    -0.747643450780    12.000000000000
         H           -1.239201702550     1.342848712557    -1.561082388008     1.007825032230
         H           -3.495322685240     0.688650210490    -0.818612651084     1.007825032230
         O           -4.006802187015    -1.004272151695     1.174345799374    15.994914619570
         H           -1.793260488950    -1.828153360904     2.165481993222     1.007825032230
         H            0.463213234548    -1.183291177790     1.407781347126     1.007825032230
         H            1.780131805656    -1.456043816962    -1.358446572043     1.007825032230
         H            0.734517052320     0.357561143977    -2.704687252791     1.007825032230
         H            2.120357059943     1.466060067082    -2.287526682119     1.007825032230
         H            4.016643637204    -1.112618628921    -0.405264550115     1.007825032230
         H            4.076462350653     0.412155032302    -1.267552035738     1.007825032230
         H            2.961505143373    -0.139107079104     1.491677742408     1.007825032230
         H            4.041311777490     1.174368290760     1.046806147687     1.007825032230
         H            1.385384155654     1.639542404800     1.304563716329     1.007825032230
         H            2.214468460793     2.344705995083    -0.073127843892     1.007825032230
         H           -4.662170766013    -0.554460087519     0.637053048040     1.007825032230

  Running in c1 symmetry.

  Rotational constants: A =      0.07449  B =      0.01474  C =      0.01366 [cm^-1]
  Rotational constants: A =   2233.18407  B =    441.99435  C =    409.55378 [MHz]
  Nuclear repulsion =  769.214227896923262

  Charge       = 0
  Multiplicity = 1
  Electrons    = 94
  Nalpha       = 47
  Nbeta        = 47

  ==> Algorithm <==

  SCF Algorithm Type is DF.
  DIIS enabled.
  MOM disabled.
  Fractional occupation disabled.
  Guess Type is READ.
  Energy threshold   = 1.00e-10
  Density threshold  = 1.00e-10
  Integral threshold = 1.00e-12

  ==> Primary Basis <==

  Basis Set: CC-PVTZ
    Blend: CC-PVTZ
    Number of shells: 214
    Number of basis functions: 586
    Number of Cartesian functions: 665
    Spherical Harmonics?: true
    Max angular momentum: 3

   => Loading Basis Set <=

    Name: (CC-PVTZ AUX)
    Role: JKFIT
    Keyword: DF_BASIS_SCF
    atoms 1-12         entry C          line   125 file /home/maxbuskirk/.conda/envs/psifour/share/psi4/basis/cc-pvtz-jkfit.gbs 
    atoms 13-14, 16-27 entry H          line    51 file /home/maxbuskirk/.conda/envs/psifour/share/psi4/basis/cc-pvtz-jkfit.gbs 
    atoms 15           entry O          line   229 file /home/maxbuskirk/.conda/envs/psifour/share/psi4/basis/cc-pvtz-jkfit.gbs 

   => Loading Basis Set <=

    Name: CC-PVTZ
    Role: ORBITAL
    Keyword: BASIS
    atoms 1-12         entry C          line   186 file /home/maxbuskirk/.conda/envs/psifour/share/psi4/basis/cc-pvtz.gbs 
    atoms 13-14, 16-27 entry H          line    23 file /home/maxbuskirk/.conda/envs/psifour/share/psi4/basis/cc-pvtz.gbs 
    atoms 15           entry O          line   262 file /home/maxbuskirk/.conda/envs/psifour/share/psi4/basis/cc-pvtz.gbs 

  Reading orbitals from file /local_scratch/pbs.4080516.pbs02/rOH.mol.2754372.180.npy, no projection.

  ==> Integral Setup <==

  ==> DiskDFJK: Density-Fitted J/K Matrices <==

    J tasked:                  Yes
    K tasked:                  Yes
    wK tasked:                  No
    OpenMP threads:              1
    Integrals threads:           1
    Memory [MiB]:              375
    Algorithm:                Disk
    Integral Cache:           NONE
    Schwarz Cutoff:          1E-12
    Fitting Condition:       1E-10

   => Auxiliary Basis Set <=

  Basis Set: (CC-PVTZ AUX)
    Blend: CC-PVTZ-JKFIT
    Number of shells: 465
    Number of basis functions: 1447
    Number of Cartesian functions: 1738
    Spherical Harmonics?: true
    Max angular momentum: 4

  Minimum eigenvalue in the overlap matrix is 3.1156629424E-05.
  Reciprocal condition number of the overlap matrix is 3.1784372817E-06.
    Using symmetric orthogonalization.

  ==> Pre-Iterations <==

  SCF Guess: Orbitals guess was supplied from a previous computation.

   -------------------------------------------------------
    Irrep   Nso     Nmo     Nalpha   Nbeta   Ndocc  Nsocc
   -------------------------------------------------------
     A        586     586      47      47      47       0
   -------------------------------------------------------
    Total     586     586      47      47      47       0
   -------------------------------------------------------

  ==> Iterations <==

                           Total Energy        Delta E     RMS |[F,P]|

   @DF-RHF iter   0:  -537.70757401657568   -5.37708e+02   2.37695e-04 
   @DF-RHF iter   1:  -537.57767469685552    1.29899e-01   3.63171e-05 DIIS
   @DF-RHF iter   2:  -537.57791410925586   -2.39412e-04   2.19197e-05 DIIS
   @DF-RHF iter   3:  -537.57799374072147   -7.96315e-05   4.73777e-06 DIIS
   @DF-RHF iter   4:  -537.57799882100767   -5.08029e-06   1.81045e-06 DIIS
   @DF-RHF iter   5:  -537.57799958150315   -7.60495e-07   4.99207e-07 DIIS
   @DF-RHF iter   6:  -537.57799968521022   -1.03707e-07   2.09195e-07 DIIS
   @DF-RHF iter   7:  -537.57799970932547   -2.41153e-08   1.02164e-07 DIIS
   @DF-RHF iter   8:  -537.57799971802433   -8.69886e-09   4.46495e-08 DIIS
   @DF-RHF iter   9:  -537.57799972027476   -2.25043e-09   1.58747e-08 DIIS
   @DF-RHF iter  10:  -537.57799972053192   -2.57160e-10   5.03667e-09 DIIS
   @DF-RHF iter  11:  -537.57799972054488   -1.29603e-11   1.78890e-09 DIIS
   @DF-RHF iter  12:  -537.57799972054158    3.29692e-12   5.87677e-10 DIIS
   @DF-RHF iter  13:  -537.57799972054261   -1.02318e-12   2.32177e-10 DIIS
   @DF-RHF iter  14:  -537.57799972054499   -2.38742e-12   1.12070e-10 DIIS
   @DF-RHF iter  15:  -537.57799972054408    9.09495e-13   5.18670e-11 DIIS
  Energy and wave function converged.


  ==> Post-Iterations <==

    Orbital Energies [Eh]
    ---------------------

    Doubly Occupied:                                                      

       1A    -20.584480     2A    -11.294419     3A    -11.231447  
       4A    -11.230289     5A    -11.227119     6A    -11.226858  
       7A    -11.223818     8A    -11.221370     9A    -11.219265  
      10A    -11.217690    11A    -11.213972    12A    -11.213374  
      13A    -11.212664    14A     -1.404334    15A     -1.189050  
      16A     -1.143371    17A     -1.040004    18A     -1.019176  
      19A     -1.010792    20A     -0.954338    21A     -0.850159  
      22A     -0.846903    23A     -0.815123    24A     -0.777437  
      25A     -0.744239    26A     -0.730421    27A     -0.694626  
      28A     -0.659279    29A     -0.635714    30A     -0.620705  
      31A     -0.600169    32A     -0.589518    33A     -0.587973  
      34A     -0.575448    35A     -0.568364    36A     -0.564058  
      37A     -0.544459    38A     -0.493759    39A     -0.492843  
      40A     -0.484092    41A     -0.472944    42A     -0.469938  
      43A     -0.460679    44A     -0.406929    45A     -0.385375  
      46A     -0.341113    47A     -0.301565  

    Virtual:                                                              

      48A      0.123093    49A      0.140054    50A      0.141138  
      51A      0.149259    52A      0.158560    53A      0.165298  
[...]
	   91 D(1,2,7,12)     =    -32.337964    -0.000000     0.015415   -32.322549
	   92 D(1,6,2,3)      =   -110.209899    -0.000000    -0.001070  -110.210969
	   93 D(1,6,2,7)      =    109.629811    -0.000000    -0.001533   109.628278
	   94 D(1,6,5,4)      =     84.088179    -0.000000    -0.000468    84.087711
	   95 D(1,6,5,21)     =   -154.698282    -0.000000    -0.000190  -154.698473
	   96 D(1,6,5,22)     =    -34.884271    -0.000000     0.001153   -34.883118
	   97 D(2,1,6,5)      =    -96.113613     0.000000     0.002732   -96.110881
	   98 D(2,1,6,18)     =    109.337483    -0.000000    -0.008512   109.328971
	   99 D(2,3,4,5)      =     34.236473     0.000000     0.004432    34.240905
	  100 D(2,3,4,23)     =    -81.417866     0.000000     0.006214   -81.411652
	  101 D(2,3,4,24)     =    158.639999     0.000000     0.005045   158.645044
	  102 D(2,6,1,19)     =   -108.452586    -0.000000    -0.003951  -108.456538
	  103 D(2,6,1,20)     =    107.933065    -0.000000    -0.001388   107.931677
	  104 D(2,6,5,4)      =     19.567659    -0.000000    -0.000243    19.567417
	  105 D(2,6,5,21)     =    140.781198    -0.000000     0.000035   140.781233
	  106 D(2,6,5,22)     =    -99.404791     0.000000     0.001379   -99.403412
	  107 D(2,7,8,9)      =    179.092796     0.000000     0.007895   179.100691
	  108 D(2,7,8,17)     =     -1.479330     0.000000     0.008322    -1.471008
	  109 D(2,7,12,11)    =   -179.265821    -0.000000    -0.010245  -179.276065
	  110 D(2,7,12,13)    =      0.116206    -0.000000    -0.009538     0.106668
	  111 D(3,2,1,6)      =     94.579861     0.000000    -0.002102    94.577758
	  112 D(3,2,1,19)     =   -158.411169     0.000000     0.003441  -158.407728
	  113 D(3,2,1,20)     =    -13.151810    -0.000000    -0.001590   -13.153400
	  114 D(3,2,6,5)      =      1.453913     0.000000     0.002631     1.456544
	  115 D(3,2,6,18)     =    143.459115     0.000000    -0.003273   143.455841
	  116 D(3,2,7,8)      =    -57.803584    -0.000000     0.015638   -57.787946
	  117 D(3,2,7,12)     =    121.036038     0.000000     0.028430   121.064468
	  118 D(3,4,5,6)      =    -33.036001    -0.000000    -0.002807   -33.038808
	  119 D(3,4,5,21)     =   -154.057215    -0.000000    -0.003378  -154.060592
	  120 D(3,4,5,22)     =     86.011324    -0.000000    -0.004267    86.007057
	  121 D(4,3,2,6)      =    -21.985794    -0.000000    -0.004018   -21.989812
	  122 D(4,3,2,7)      =    119.542100    -0.000000    -0.011783   119.530318
	  123 D(4,5,6,18)     =   -122.061656    -0.000000     0.010170  -122.051486
	  124 D(5,4,3,25)     =    154.896836    -0.000000     0.004047   154.900883
	  125 D(5,4,3,26)     =    -84.733852     0.000000     0.004658   -84.729193
	  126 D(5,6,1,19)     =    155.433801    -0.000000    -0.001220   155.432581
	  127 D(5,6,1,20)     =     11.819453     0.000000     0.001343    11.820796
	  128 D(5,6,2,7)      =   -138.706377    -0.000000     0.002167  -138.704209
	  129 D(6,1,2,7)      =   -111.146715     0.000000     0.012166  -111.134549
	  130 D(6,2,1,19)     =    107.008970     0.000000     0.005543   107.014514
	  131 D(6,2,1,20)     =   -107.731671    -0.000000     0.000513  -107.731158
	  132 D(6,2,3,25)     =   -143.591721     0.000000    -0.003051  -143.594772
	  133 D(6,2,3,26)     =     97.221733    -0.000000    -0.004015    97.217719
	  134 D(6,2,7,8)      =     77.562281     0.000000     0.012023    77.574304
	  135 D(6,2,7,12)     =   -103.598097     0.000000     0.024815  -103.573282
	  136 D(6,5,4,23)     =     82.668246    -0.000000    -0.004518    82.663728
	  137 D(6,5,4,24)     =   -157.396299     0.000000    -0.002580  -157.398879
	  138 D(7,2,1,19)     =     -4.137745     0.000000     0.017710    -4.120035
	  139 D(7,2,1,20)     =    141.121614     0.000000     0.012679   141.134293
	  140 D(7,2,3,25)     =     -2.063827    -0.000000    -0.010816    -2.074642
	  141 D(7,2,3,26)     =   -121.250372    -0.000000    -0.011780  -121.262152
	  142 D(7,2,6,18)     =      3.298825    -0.000000    -0.003737     3.295088
	  143 D(7,8,9,10)     =      0.099645     0.000000     0.000446     0.100091
	  144 D(7,8,9,16)     =    179.706852    -0.000000     0.000244   179.707095
	  145 D(7,12,11,10)   =      0.308394     0.000000     0.003481     0.311875
	  146 D(7,12,11,14)   =   -179.961524     0.000000     0.002859  -179.958665
	  147 D(8,7,12,11)    =     -0.404929     0.000000     0.002356    -0.402574
	  148 D(8,7,12,13)    =    178.977098     0.000000     0.003062   178.980160
	  149 D(8,9,10,11)    =     -0.203493     0.000000     0.005477    -0.198015
	  150 D(8,9,10,15)    =    179.763078    -0.000000    -0.009872   179.753206
	  151 D(9,8,7,12)     =      0.201311    -0.000000    -0.004328     0.196983
	  152 D(9,10,11,12)   =      0.003480    -0.000000    -0.007414    -0.003933
	  153 D(9,10,11,14)   =   -179.727376    -0.000000    -0.006806  -179.734181
	  154 D(9,10,15,27)   =    179.964061     0.000000     0.013361   179.977422
	  155 D(10,9,8,17)    =   -179.328607    -0.000000    -0.000003  -179.328611
	  156 D(10,11,12,13)  =   -179.074098     0.000000     0.002776  -179.071323
	  157 D(11,10,9,16)   =   -179.820485     0.000000     0.005663  -179.814822
	  158 D(11,10,15,27)  =     -0.070570    -0.000000    -0.002543    -0.073114
	  159 D(12,7,8,17)    =    179.629185    -0.000000    -0.003901   179.625284
	  160 D(12,11,10,15)  =   -179.961161     0.000000     0.008823  -179.952338
	  161 D(13,12,11,14)  =      0.655984     0.000000     0.002154     0.658137
	  162 D(14,11,10,15)  =      0.307982     0.000000     0.009432     0.317414
	  163 D(15,10,9,16)   =      0.146086    -0.000000    -0.009686     0.136399
	  164 D(16,9,8,17)    =      0.278600    -0.000000    -0.000205     0.278394
	  165 D(18,6,1,19)    =      0.884897    -0.000000    -0.012464     0.872434
	  166 D(18,6,1,20)    =   -142.729451    -0.000000    -0.009900  -142.739352
	  167 D(18,6,5,21)    =     -0.848117     0.000000     0.010447    -0.837670
	  168 D(18,6,5,22)    =    118.965894     0.000000     0.011791   118.977686
	  169 D(21,5,4,23)    =    -38.352968    -0.000000    -0.005088   -38.358056
	  170 D(21,5,4,24)    =     81.582487     0.000000    -0.003150    81.579336
	  171 D(22,5,4,23)    =   -158.284429    -0.000000    -0.005977  -158.290406
	  172 D(22,5,4,24)    =    -38.348975    -0.000000    -0.004040   -38.353014
	  173 D(23,4,3,25)    =     39.242497    -0.000000     0.005829    39.248325
	  174 D(23,4,3,26)    =    159.611809     0.000000     0.006440   159.618250
	  175 D(24,4,3,25)    =    -80.699638    -0.000000     0.004660   -80.694978
	  176 D(24,4,3,26)    =     39.669675     0.000000     0.005271    39.674946
	 ---------------------------------------------------------------------------
	Successfully symmetrized geometry.

  ==> Convergence Check <==

  Measures of convergence in internal coordinates in au.
  Criteria marked as inactive (o), active & met (*), and active & unmet ( ).
  ---------------------------------------------------------------------------------------------
   Step     Total Energy     Delta E     MAX Force     RMS Force      MAX Disp      RMS Disp   
  ---------------------------------------------------------------------------------------------
    Convergence Criteria    1.00e-06 *    3.00e-04 *             o    1.20e-03 *             o
  ---------------------------------------------------------------------------------------------
      9    -539.97647713   -1.41e-07 *    4.67e-05 *    5.08e-06 o    4.96e-04 *    1.02e-04 o  ~
  ---------------------------------------------------------------------------------------------


  **** Optimization is complete! (in 9 steps) ****

  ==> Optimization Summary <==

  Measures of convergence in internal coordinates in au.
  --------------------------------------------------------------------------------------------------------------- ~
   Step         Total Energy             Delta E       MAX Force       RMS Force        MAX Disp        RMS Disp  ~
  --------------------------------------------------------------------------------------------------------------- ~
      1    -539.970101464523   -539.970101464523      0.01968017      0.00519811      0.04277691      0.01431689  ~
      2    -539.976279446047     -0.006177981524      0.00445343      0.00058914      0.02262318      0.00483094  ~
      3    -539.976396638239     -0.000117192191      0.00108144      0.00015329      0.02738295      0.00498053  ~
      4    -539.976423002885     -0.000026364646      0.00038223      0.00006764      0.05045951      0.00881231  ~
      5    -539.976447477011     -0.000024474126      0.00078097      0.00010983      0.05915641      0.01022938  ~
      6    -539.976466246534     -0.000018769523      0.00075157      0.00011971      0.04098636      0.00702841  ~
      7    -539.976475362015     -0.000009115481      0.00026414      0.00005497      0.00341091      0.00066379  ~
      8    -539.976476991836     -0.000001629821      0.00013560      0.00001654      0.00158023      0.00027691  ~
      9    -539.976477133129     -0.000000141293      0.00004674      0.00000508      0.00049619      0.00010181  ~
  --------------------------------------------------------------------------------------------------------------- ~

	Writing optimization data to binary file.
	Final energy is   -539.9764771331289
	Final (previous) structure:
	Cartesian Geometry (in Angstrom)
	    C     1.4812019839   0.6695693836  -1.9929820601
	    C     1.1252729150   0.5530684530  -0.5444483680
	    C     1.9503642794   1.4217524797   0.3999366202
	    C     3.1947918187   0.5892834352   0.7048707809
	    C     3.4732108750  -0.1742822546  -0.5906286408
	    C     2.0979060673  -0.4254188908  -1.1728659053
	    C    -0.2288296909   0.1419164901  -0.1312390384
	    C    -0.4043817880  -0.5732799614   1.0535976229
	    C    -1.6592866660  -0.9609253356   1.4849963070
	    C    -2.7784036734  -0.6382626678   0.7284918615
	    C    -2.6259500864   0.0740896520  -0.4513328398
	    C    -1.3606155791   0.4605733970  -0.8705251562
	    H    -1.2559672566   1.0267634595  -1.7813386073
	    H    -3.4930669037   0.3304844254  -1.0395204968
	    O    -3.9918246546  -1.0482250030   1.1956726502
	    H    -1.7911584957  -1.5166497061   2.3971491041
	    H     0.4597171218  -0.8381715062   1.6426863554
	    H     1.7732839591  -1.4332119994  -1.3702008537
	    H     0.7405203925   0.3789236268  -2.7186329668
	    H     2.1168484824   1.4897348396  -2.2875944932
	    H     4.0105047716  -1.0998156903  -0.4116625114
	    H     4.0760425649   0.4269715310  -1.2691595345
	    H     2.9483232914  -0.1299706407   1.4833498133
	    H     4.0378913217   1.1797296162   1.0520922100
	    H     1.3871933575   1.6684242739   1.2941339531
	    H     2.2221118797   2.3576415661  -0.0857339667
	    H    -4.6650540953  -0.7557356842   0.5750103904
	Saving final (previous) structure.
	Cleaning optimization helper files.
			--------------------------
			 OPTKING Finished Execution 
			--------------------------

    Final optimized geometry and variables:
    Molecular point group: c1
    Full point group: C1

    Geometry (in Angstrom), charge = 0, multiplicity = 1:

    C            1.481201989678     0.669569386238    -1.992982067891
    C            1.125272919433     0.553068455171    -0.544448370133
    C            1.950364287018     1.421752485321     0.399936621748
    C            3.194791831231     0.589283437539     0.704870783668
    C            3.473210888634    -0.174282255267    -0.590628643137
    C            2.097906075595    -0.425418892482    -1.172865909949
    C           -0.228829691838     0.141916490671    -0.131239038888
    C           -0.404381789612    -0.573279963693     1.053597627031
    C           -1.659286672550    -0.960925339353     1.484996312886
    C           -2.778403684274    -0.638262670336     0.728491864337
    C           -2.625950096675     0.074089652271    -0.451332841608
    C           -1.360615584490     0.460573398799    -0.870525159658
    H           -1.255967261490     1.026763463511    -1.781338614307
    H           -3.493066917411     0.330484426694    -1.039520500914
    O           -3.991824670242    -1.048225007133     1.195672654938
    H           -1.791158502704    -1.516649712058     2.397149113515
    H            0.459717123640    -0.838171509484     1.642686361860
    H            1.773283966030    -1.433212005037    -1.370200859110
    H            0.740520395376     0.378923628306    -2.718632977488
    H            2.116848490682     1.489734845493    -2.287594502213
    H            4.010504787382    -1.099815694589    -0.411662513056
    H            4.076042580932     0.426971532693    -1.269159539526
    H            2.948323302964    -0.129970641240     1.483349819081
    H            4.037891337580     1.179729620860     1.052092214164
    H            1.387193362959     1.668424280480     1.294133958152
    H            2.222111888472     2.357641575397    -0.085733967032
    H           -4.665054113647    -0.755735687135     0.575010392671

	Removing binary optimization data file.
	Cleaning optimization helper files.


Properties will be evaluated at   0.000000,   0.000000,   0.000000 [a0]
OEProp: No title given, name of density matrix used for the following properties is 'DF-MP2 relaxed density'
  Mulliken Charges: (a.u.)
   Center  Symbol    Alpha    Beta     Spin     Total
       1     C     3.21301  3.21301  0.00000 -0.42602
       2     C     2.97962  2.97962  0.00000  0.04076
       3     C     3.14413  3.14413  0.00000 -0.28825
       4     C     3.11833  3.11833  0.00000 -0.23667
       5     C     3.13704  3.13704  0.00000 -0.27409
       6     C     3.05083  3.05083  0.00000 -0.10165
       7     C     2.94278  2.94278  0.00000  0.11443
       8     C     3.07646  3.07646  0.00000 -0.15291
       9     C     3.09586  3.09586  0.00000 -0.19171
      10     C     2.89343  2.89343  0.00000  0.21313
      11     C     3.12073  3.12073  0.00000 -0.24146
      12     C     3.08701  3.08701  0.00000 -0.17402
      13     H     0.42188  0.42188  0.00000  0.15623
      14     H     0.43605  0.43605  0.00000  0.12790
      15     O     4.14870  4.14870  0.00000 -0.29741
      16     H     0.42266  0.42266  0.00000  0.15467
      17     H     0.42218  0.42218  0.00000  0.15563
      18     H     0.42423  0.42423  0.00000  0.15154
      19     H     0.42820  0.42820  0.00000  0.14360
      20     H     0.43557  0.43557  0.00000  0.12886
      21     H     0.43312  0.43312  0.00000  0.13376
      22     H     0.43779  0.43779  0.00000  0.12442
      23     H     0.44092  0.44092  0.00000  0.11815
      24     H     0.43440  0.43440  0.00000  0.13121
      25     H     0.43143  0.43143  0.00000  0.13714
      26     H     0.43678  0.43678  0.00000  0.12644
      27     H     0.38685  0.38685  0.00000  0.22631

   Total alpha = 47.00000, Total beta = 47.00000, Total charge =  0.00000

    Molecular point group: c1
    Full point group: C1

    Geometry (in Angstrom), charge = 0, multiplicity = 1:

       Center              X                  Y                   Z               Mass       
    ------------   -----------------  -----------------  -----------------  -----------------
         C            1.481201989678     0.669569386238    -1.992982067891    12.000000000000
         C            1.125272919433     0.553068455171    -0.544448370133    12.000000000000
         C            1.950364287018     1.421752485321     0.399936621748    12.000000000000
         C            3.194791831231     0.589283437539     0.704870783668    12.000000000000
         C            3.473210888634    -0.174282255267    -0.590628643137    12.000000000000
         C            2.097906075595    -0.425418892482    -1.172865909949    12.000000000000
         C           -0.228829691838     0.141916490671    -0.131239038888    12.000000000000
         C           -0.404381789612    -0.573279963693     1.053597627031    12.000000000000
         C           -1.659286672550    -0.960925339353     1.484996312886    12.000000000000
         C           -2.778403684274    -0.638262670336     0.728491864337    12.000000000000
         C           -2.625950096675     0.074089652271    -0.451332841608    12.000000000000
         C           -1.360615584490     0.460573398799    -0.870525159658    12.000000000000
         H           -1.255967261490     1.026763463511    -1.781338614307     1.007825032230
         H           -3.493066917411     0.330484426694    -1.039520500914     1.007825032230
         O           -3.991824670242    -1.048225007133     1.195672654938    15.994914619570
         H           -1.791158502704    -1.516649712058     2.397149113515     1.007825032230
         H            0.459717123640    -0.838171509484     1.642686361860     1.007825032230
         H            1.773283966030    -1.433212005037    -1.370200859110     1.007825032230
         H            0.740520395376     0.378923628306    -2.718632977488     1.007825032230
         H            2.116848490682     1.489734845493    -2.287594502213     1.007825032230
         H            4.010504787382    -1.099815694589    -0.411662513056     1.007825032230
         H            4.076042580932     0.426971532693    -1.269159539526     1.007825032230
         H            2.948323302964    -0.129970641240     1.483349819081     1.007825032230
         H            4.037891337580     1.179729620860     1.052092214164     1.007825032230
         H            1.387193362959     1.668424280480     1.294133958152     1.007825032230
         H            2.222111888472     2.357641575397    -0.085733967032     1.007825032230
         H           -4.665054113647    -0.755735687135     0.575010392671     1.007825032230



  Variable Map:
  ----------------------------------------------------------------------------
  "CURRENT CORRELATION ENERGY"           =>      -2.398798958622
  "CURRENT DIPOLE X"                     =>      -0.051385041932
  "CURRENT DIPOLE Y"                     =>       0.596818883143
  "CURRENT DIPOLE Z"                     =>      -1.079548351689
  "CURRENT ENERGY"                       =>    -539.976477133129
  "CURRENT REFERENCE ENERGY"             =>    -537.577678174507
  "CUSTOM SCS-MP2 CORRELATION ENERGY"    =>      -2.372661143107
  "CUSTOM SCS-MP2 TOTAL ENERGY"          =>    -539.950339317614
  "HF TOTAL ENERGY"                      =>    -537.577678174507
  "MP2 CORRELATION ENERGY"               =>      -2.398798958622
  "MP2 DOUBLES ENERGY"                   =>      -2.398798958622
  "MP2 OPPOSITE-SPIN CORRELATION ENERGY" =>      -1.815070950269
  "MP2 SAME-SPIN CORRELATION ENERGY"     =>      -0.583728008353
  "MP2 SINGLES ENERGY"                   =>      -0.000000000000
  "MP2 TOTAL ENERGY"                     =>    -539.976477133129
  "NUCLEAR REPULSION ENERGY"             =>     768.897126072615
  "ONE-ELECTRON ENERGY"                  =>   -2255.365850791408
  "OPTIMIZATION ITERATIONS"              =>       9.000000000000
  "PCM POLARIZATION ENERGY"              =>       0.000000000000
  "PE ENERGY"                            =>       0.000000000000
  "SCF DIPOLE X"                         =>      -0.051385041932
  "SCF DIPOLE Y"                         =>       0.596818883143
  "SCF DIPOLE Z"                         =>      -1.079548351689
  "SCF ITERATION ENERGY"                 =>    -537.577678174507
  "SCF ITERATIONS"                       =>      11.000000000000
  "SCF TOTAL ENERGY"                     =>    -537.577678174507
  "SCS-MP2 CORRELATION ENERGY"           =>      -2.372661143107
  "SCS-MP2 TOTAL ENERGY"                 =>    -539.950339317614
  "TWO-ELECTRON ENERGY"                  =>     948.891046544286



    Psi4 stopped on: Friday, 26 November 2021 01:59AM
    Psi4 wall time for execution: 1:45:08.44

*** Psi4 exiting successfully. Buy a developer a beer!
