
    -----------------------------------------------------------------------
          Psi4: An Open-Source Ab Initio Electronic Structure Package
                               Psi4 1.4 release

                         Git: Rev {HEAD} 9485035 


    D. G. A. Smith, L. A. Burns, A. C. Simmonett, R. M. Parrish,
    M. C. Schieber, R. Galvelis, P. Kraus, H. Kruse, R. Di Remigio,
    A. Alenaizan, A. M. James, S. Lehtola, J. P. Misiewicz, M. Scheurer,
    R. A. Shaw, J. B. Schriber, Y. Xie, Z. L. Glick, D. A. Sirianni,
    J. S. O'Brien, J. M. Waldrop, A. Kumar, E. G. Hohenstein,
    B. P. Pritchard, B. R. Brooks, H. F. Schaefer III, A. Yu. Sokolov,
    K. Patkowski, A. E. DePrince III, U. Bozkaya, R. A. King,
    F. A. Evangelista, J. M. Turney, T. D. Crawford, C. D. Sherrill,
    J. Chem. Phys. 152(18) 184108 (2020). https://doi.org/10.1063/5.0006002

                            Additional Code Authors
    E. T. Seidl, C. L. Janssen, E. F. Valeev, M. L. Leininger,
    J. F. Gonthier, R. M. Richard, H. R. McAlexander, M. Saitow, X. Wang,
    P. Verma, and M. H. Lechner

             Previous Authors, Complete List of Code Contributors,
                       and Citations for Specific Modules
    https://github.com/psi4/psi4/blob/master/codemeta.json
    https://github.com/psi4/psi4/graphs/contributors
    http://psicode.org/psi4manual/master/introduction.html#citing-psifour

    -----------------------------------------------------------------------


    Psi4 started on: Wednesday, 09 February 2022 03:55AM

    Process ID: 2958237
    Host:       skylm002.palmetto.clemson.edu
    PSIDATADIR: /home/maxbuskirk/.conda/envs/psifour/share/psi4
    Memory:     500.0 MiB
    Threads:    1
    
  ==> Input File <==

--------------------------------------------------------------------------
memory 62 GB

molecule mol {
0 1
 C     0.355130     0.111221    -1.467412
 C    -0.000000    -0.000000     0.000000
 C     0.828100     0.881905     0.953535
 C     2.091555     0.051810     1.254924
 C     2.370953    -0.722993    -0.049363
 C     0.983556    -0.988346    -0.633510
 C    -1.373576    -0.413221     0.414448
 C    -1.542792    -1.321567     1.480545
 C    -2.825059    -1.692334     1.911870
 C    -3.961673    -1.159299     1.279913
 C    -3.805653    -0.253936     0.218219
 C    -2.519836     0.117392    -0.208007
 H    -2.398432     0.829298    -1.030811
 H    -4.686419     0.165723    -0.277661
 O    -5.224199    -1.526822     1.698665
 H    -2.939181    -2.402495     2.736730
 H    -0.656700    -1.746978     1.964470
 H     0.659437    -2.015061    -0.827996
 H    -0.405740    -0.188168    -2.193765
 H     0.996446     0.943276    -1.777222
 H     2.921789    -1.659184     0.134099
 H     2.979683    -0.115336    -0.742780
 H     1.856488    -0.672951     2.054626
 H     2.945544     0.661232     1.596113
 H     0.256631     1.122533     1.863868
 H     1.092347     1.837771     0.466059
 C    -6.184001    -0.867876     0.921124
 H    -7.180299    -1.157899     1.251575
 H    -6.063944     0.208814     1.031793
 H    -6.054349    -1.141975    -0.124811
}

set scf_type df
set basis cc-pVDZ
set reference rhf

mol.update_geometry()
mol.symmetrize(1e-3)

e, wfn = optimize('CCSD', return_wfn=True)
oeprop(wfn, "MULLIKEN_CHARGES")
mol.print_out()
print_variables()
--------------------------------------------------------------------------

  Memory set to  57.742 GiB by Python driver.

Scratch directory: /scratch1/maxbuskirk/
gradient() will perform analytic gradient computation.

*** tstart() called on skylm002.palmetto.clemson.edu
*** at Wed Feb  9 03:55:39 2022

   => Loading Basis Set <=

    Name: CC-PVDZ
    Role: ORBITAL
    Keyword: BASIS
    atoms 1-12, 27            entry C          line   138 file /home/maxbuskirk/.conda/envs/psifour/share/psi4/basis/cc-pvdz.gbs 
    atoms 13-14, 16-26, 28-30 entry H          line    22 file /home/maxbuskirk/.conda/envs/psifour/share/psi4/basis/cc-pvdz.gbs 
    atoms 15                  entry O          line   198 file /home/maxbuskirk/.conda/envs/psifour/share/psi4/basis/cc-pvdz.gbs 


         ---------------------------------------------------------
                                   SCF
               by Justin Turney, Rob Parrish, Andy Simmonett
                          and Daniel G. A. Smith
                              RHF Reference
                        1 Threads,  59127 MiB Core
         ---------------------------------------------------------

  ==> Geometry <==

    Molecular point group: c1
    Full point group: C1

    Geometry (in Angstrom), charge = 0, multiplicity = 1:

       Center              X                  Y                   Z               Mass       
    ------------   -----------------  -----------------  -----------------  -----------------
         C            1.882703824103     0.668744759916    -2.032251349099    12.000000000000
         C            1.527573824103     0.557523759916    -0.564839349099    12.000000000000
         C            2.355673824103     1.439428759916     0.388695650901    12.000000000000
         C            3.619128824103     0.609333759916     0.690084650901    12.000000000000
         C            3.898526824103    -0.165469240084    -0.614202349099    12.000000000000
         C            2.511129824103    -0.430822240084    -1.198349349099    12.000000000000
         C            0.153997824103     0.144302759916    -0.150391349099    12.000000000000
         C           -0.015218175897    -0.764043240084     0.915705650901    12.000000000000
         C           -1.297485175897    -1.134810240084     1.347030650901    12.000000000000
         C           -2.434099175897    -0.601775240084     0.715073650901    12.000000000000
         C           -2.278079175897     0.303587759916    -0.346620349099    12.000000000000
         C           -0.992262175897     0.674915759916    -0.772846349099    12.000000000000
         H           -0.870858175897     1.386821759916    -1.595650349099     1.007825032230
         H           -3.158845175897     0.723246759916    -0.842500349099     1.007825032230
         O           -3.696625175897    -0.969298240084     1.133825650901    15.994914619570
         H           -1.411607175897    -1.844971240084     2.171890650901     1.007825032230
         H            0.870873824103    -1.189454240084     1.399630650901     1.007825032230
         H            2.187010824103    -1.457537240084    -1.392835349099     1.007825032230
         H            1.121833824103     0.369355759916    -2.758604349099     1.007825032230
         H            2.524019824103     1.500799759916    -2.342061349099     1.007825032230
         H            4.449362824103    -1.101660240084    -0.430740349099     1.007825032230
         H            4.507256824103     0.442187759916    -1.307619349099     1.007825032230
         H            3.384061824103    -0.115427240084     1.489786650901     1.007825032230
         H            4.473117824103     1.218755759916     1.031273650901     1.007825032230
         H            1.784204824103     1.680056759916     1.299028650901     1.007825032230
         H            2.619920824103     2.395294759916    -0.098780349099     1.007825032230
         C           -4.656427175897    -0.310352240084     0.356284650901    12.000000000000
         H           -5.652725175897    -0.600375240084     0.686735650901     1.007825032230
         H           -4.536370175897     0.766337759916     0.466953650901     1.007825032230
         H           -4.526775175897    -0.584451240084    -0.689650349099     1.007825032230

  Running in c1 symmetry.

  Rotational constants: A =      0.06986  B =      0.01117  C =      0.01049 [cm^-1]
  Rotational constants: A =   2094.25887  B =    334.79267  C =    314.40141 [MHz]
  Nuclear repulsion =  862.218940092971707

  Charge       = 0
  Multiplicity = 1
  Electrons    = 102
  Nalpha       = 51
  Nbeta        = 51

  ==> Algorithm <==

  SCF Algorithm Type is DF.
  DIIS enabled.
  MOM disabled.
  Fractional occupation disabled.
  Guess Type is SAD.
  Energy threshold   = 1.00e-10
  Density threshold  = 1.00e-10
  Integral threshold = 1.00e-12

  ==> Primary Basis <==

  Basis Set: CC-PVDZ
    Blend: CC-PVDZ
    Number of shells: 132
    Number of basis functions: 276
    Number of Cartesian functions: 290
    Spherical Harmonics?: true
    Max angular momentum: 2

   => Loading Basis Set <=

    Name: (CC-PVDZ AUX)
    Role: JKFIT
    Keyword: DF_BASIS_SCF
    atoms 1-12, 27            entry C          line   121 file /home/maxbuskirk/.conda/envs/psifour/share/psi4/basis/cc-pvdz-jkfit.gbs 
    atoms 13-14, 16-26, 28-30 entry H          line    51 file /home/maxbuskirk/.conda/envs/psifour/share/psi4/basis/cc-pvdz-jkfit.gbs 
    atoms 15                  entry O          line   221 file /home/maxbuskirk/.conda/envs/psifour/share/psi4/basis/cc-pvdz-jkfit.gbs 

  ==> Integral Setup <==

  DFHelper Memory: AOs need 0.671 GiB; user supplied 43.306 GiB. Using in-core AOs.

  ==> MemDFJK: Density-Fitted J/K Matrices <==

    J tasked:                   Yes
    K tasked:                   Yes
    wK tasked:                   No
    OpenMP threads:               1
    Memory [MiB]:             44345
    Algorithm:                 Core
    Schwarz Cutoff:           1E-12
    Mask sparsity (%):      15.6847
    Fitting Condition:        1E-10

   => Auxiliary Basis Set <=

  Basis Set: (CC-PVDZ AUX)
    Blend: CC-PVDZ-JKFIT
    Number of shells: 480
    Number of basis functions: 1348
    Number of Cartesian functions: 1534
    Spherical Harmonics?: true
    Max angular momentum: 3

  Minimum eigenvalue in the overlap matrix is 3.3124133720E-04.
  Reciprocal condition number of the overlap matrix is 4.7843353131E-05.
    Using symmetric orthogonalization.

  ==> Pre-Iterations <==

  SCF Guess: Superposition of Atomic Densities via on-the-fly atomic UHF (no occupation information).

   -------------------------
    Irrep   Nso     Nmo    
   -------------------------
     A        276     276 
   -------------------------
    Total     276     276
   -------------------------

  ==> Iterations <==

                           Total Energy        Delta E     RMS |[F,P]|

   @DF-RHF iter SAD:  -576.14285792331225   -5.76143e+02   0.00000e+00 
   @DF-RHF iter   1:  -576.16979139527211   -2.69335e-02   2.25877e-03 DIIS
   @DF-RHF iter   2:  -576.40157792570994   -2.31787e-01   9.97554e-04 DIIS
   @DF-RHF iter   3:  -576.44132028484364   -3.97424e-02   2.86456e-04 DIIS
   @DF-RHF iter   4:  -576.44565793927427   -4.33765e-03   1.07695e-04 DIIS
   @DF-RHF iter   5:  -576.44617425792012   -5.16319e-04   2.11709e-05 DIIS
   @DF-RHF iter   6:  -576.44620088440809   -2.66265e-05   7.27991e-06 DIIS
   @DF-RHF iter   7:  -576.44620411299400   -3.22859e-06   2.08172e-06 DIIS
   @DF-RHF iter   8:  -576.44620452010849   -4.07114e-07   6.95570e-07 DIIS
   @DF-RHF iter   9:  -576.44620457345798   -5.33495e-08   2.56473e-07 DIIS
   @DF-RHF iter  10:  -576.44620458102884   -7.57086e-09   1.03488e-07 DIIS
   @DF-RHF iter  11:  -576.44620458296004   -1.93120e-09   5.33770e-08 DIIS
   @DF-RHF iter  12:  -576.44620458350357   -5.43537e-10   2.45523e-08 DIIS
   @DF-RHF iter  13:  -576.44620458365580   -1.52227e-10   8.52014e-09 DIIS
   @DF-RHF iter  14:  -576.44620458366944   -1.36424e-11   2.69754e-09 DIIS
   @DF-RHF iter  15:  -576.44620458367342   -3.97904e-12   8.19892e-10 DIIS
   @DF-RHF iter  16:  -576.44620458367217    1.25056e-12   3.92637e-10 DIIS
   @DF-RHF iter  17:  -576.44620458367342   -1.25056e-12   2.25539e-10 DIIS
   @DF-RHF iter  18:  -576.44620458367274    6.82121e-13   1.05426e-10 DIIS
   @DF-RHF iter  19:  -576.44620458367262    1.13687e-13   4.51627e-11 DIIS
  Energy and wave function converged.


  ==> Post-Iterations <==

    Orbital Energies [Eh]
    ---------------------

    Doubly Occupied:                                                      

       1A    -20.584610     2A    -11.300297     3A    -11.281967  
       4A    -11.242850     5A    -11.241851     6A    -11.236871  
       7A    -11.236227     8A    -11.235458     9A    -11.234162  
      10A    -11.230643    11A    -11.229287    12A    -11.226537  
      13A    -11.225750    14A    -11.225050    15A     -1.413458  
      16A     -1.179925    17A     -1.133878    18A     -1.034880  
      19A     -1.014590    20A     -1.009810    21A     -0.957022  
      22A     -0.937025    23A     -0.845675    24A     -0.818483  
      25A     -0.808681    26A     -0.771684    27A     -0.737029  
      28A     -0.712210    29A     -0.675921    30A     -0.661397  
      31A     -0.657802    32A     -0.629596    33A     -0.621691  
      34A     -0.592772    35A     -0.584451    36A     -0.572408  
      37A     -0.565887    38A     -0.561133    39A     -0.539523  
      40A     -0.520462    41A     -0.513303    42A     -0.481019  
      43A     -0.478067    44A     -0.476541    45A     -0.468886  
      46A     -0.466030    47A     -0.451471    48A     -0.404374  
      49A     -0.383054    50A     -0.334452    51A     -0.299173  

    Virtual:                                                              

      52A      0.127681    53A      0.149016    54A      0.178406  
      55A      0.191129    56A      0.201624    57A      0.210369  
      58A      0.213217    59A      0.233375    60A      0.236428  
      61A      0.248579    62A      0.252827    63A      0.259162  
      64A      0.264832    65A      0.269995    66A      0.273022  
      67A      0.287422    68A      0.302838    69A      0.307539  
      70A      0.324161    71A      0.342064    72A      0.351831  
      73A      0.361003    74A      0.375377    75A      0.395895  
      76A      0.411526    77A      0.417058    78A      0.446185  
      79A      0.463262    80A      0.478554    81A      0.496264  
      82A      0.514870    83A      0.525110    84A      0.536445  
      85A      0.591685    86A      0.623536    87A      0.624802  
      88A      0.631114    89A      0.641567    90A      0.662016  
      91A      0.667453    92A      0.674303    93A      0.681432  
      94A      0.694868    95A      0.712786    96A      0.714527  
      97A      0.716765    98A      0.728230    99A      0.739355  
     100A      0.743267   101A      0.748121   102A      0.751868  
     103A      0.763732   104A      0.791251   105A      0.793607  
     106A      0.814818   107A      0.825842   108A      0.836360  
     109A      0.843180   110A      0.850746   111A      0.855967  
     112A      0.865964   113A      0.869343   114A      0.874113  
     115A      0.877503   116A      0.889813   117A      0.892630  
     118A      0.898045   119A      0.904551   120A      0.907410  
     121A      0.907998   122A      0.912886   123A      0.920722  
     124A      0.926068   125A      0.935479   126A      0.940916  
     127A      0.953892   128A      0.956032   129A      0.963742  
     130A      0.975601   131A      0.976021   132A      1.009625  
     133A      1.021900   134A      1.049264   135A      1.055565  
     136A      1.118700   137A      1.123506   138A      1.138966  
     139A      1.157248   140A      1.165709   141A      1.173457  
     142A      1.193526   143A      1.223268   144A      1.240071  
     145A      1.252122   146A      1.270228   147A      1.277361  
     148A      1.299045   149A      1.301339   150A      1.333028  
     151A      1.340323   152A      1.360735   153A      1.367079  
     154A      1.378924   155A      1.397164   156A      1.424787  
     157A      1.428158   158A      1.456760   159A      1.474978  
     160A      1.475745   161A      1.487683   162A      1.499945  
     163A      1.522232   164A      1.558466   165A      1.594220  
     166A      1.599267   167A      1.614992   168A      1.647157  
     169A      1.662022   170A      1.677185   171A      1.699475  
     172A      1.722619   173A      1.730869   174A      1.748304  
     175A      1.760515   176A      1.779656   177A      1.783786  
     178A      1.789335   179A      1.815787   180A      1.820130  
     181A      1.831299   182A      1.843073   183A      1.846358  
     184A      1.872879   185A      1.875654   186A      1.883615  
     187A      1.887994   188A      1.901796   189A      1.907859  
     190A      1.914737   191A      1.922466   192A      1.930642  
     193A      1.939340   194A      1.942352   195A      1.956257  
     196A      1.959894   197A      1.968743   198A      1.973168  
     199A      1.976718   200A      1.994538   201A      2.001413  
     202A      2.014147   203A      2.023031   204A      2.035440  
     205A      2.042329   206A      2.046005   207A      2.053982  
     208A      2.067868   209A      2.077374   210A      2.082064  
     211A      2.094020   212A      2.113494   213A      2.120456  
     214A      2.133767   215A      2.156671   216A      2.181891  
     217A      2.192832   218A      2.212523   219A      2.233384  
     220A      2.236981   221A      2.238415   222A      2.250513  
     223A      2.263696   224A      2.268162   225A      2.290888  
     226A      2.294899   227A      2.303804   228A      2.338343  
     229A      2.356797   230A      2.365047   231A      2.377961  
     232A      2.389701   233A      2.400032   234A      2.430660  
     235A      2.449903   236A      2.458477   237A      2.464889  
     238A      2.473964   239A      2.486078   240A      2.506244  
     241A      2.544634   242A      2.557671   243A      2.571359  
     244A      2.600258   245A      2.613012   246A      2.641006  
     247A      2.648202   248A      2.686312   249A      2.725316  
     250A      2.753783   251A      2.769253   252A      2.778210  
     253A      2.780299   254A      2.787652   255A      2.801915  
     256A      2.811081   257A      2.848531   258A      2.860926  
     259A      2.876502   260A      2.917727   261A      2.922086  
     262A      2.947290   263A      2.991233   264A      3.002154  
     265A      3.014080   266A      3.055373   267A      3.083700  
     268A      3.146891   269A      3.236265   270A      3.262964  
     271A      3.293192   272A      3.388263   273A      3.478429  
     274A      3.627762   275A      3.756956   276A      3.998937  

    Final Occupation by Irrep:
              A 
    DOCC [    51 ]

  @DF-RHF Final Energy:  -576.44620458367262

   => Energetics <=

    Nuclear Repulsion Energy =            862.2189400929717067
    One-Electron Energy =               -2493.2396452451312143
    Two-Electron Energy =                1054.5745005684868829
    Total Energy =                       -576.4462045836726247

Computation Completed


Properties will be evaluated at   0.000000,   0.000000,   0.000000 [a0]

Properties computed using the SCF density matrix

  Nuclear Dipole Moment: [e a0]
     X:     7.2612      Y:     3.3599      Z:    -2.7255

  Electronic Dipole Moment: [e a0]
     X:    -7.3435      Y:    -3.0441      Z:     2.3663

  Dipole Moment: [e a0]
     X:    -0.0823      Y:     0.3158      Z:    -0.3592     Total:     0.4853

  Dipole Moment: [D]
     X:    -0.2092      Y:     0.8026      Z:    -0.9130     Total:     1.2335


*** tstop() called on skylm002.palmetto.clemson.edu at Wed Feb  9 03:56:04 2022
Module time:
	user time   =      23.31 seconds =       0.39 minutes
	system time =       1.02 seconds =       0.02 minutes
	total time  =         25 seconds =       0.42 minutes
Total time:
	user time   =      23.31 seconds =       0.39 minutes
	system time =       1.02 seconds =       0.02 minutes
	total time  =         25 seconds =       0.42 minutes
 MINTS: Wrapper to libmints.
   by Justin Turney

   Calculation information:
      Number of threads:                 1
      Number of atoms:                  30
      Number of AO shells:             132
      Number of SO shells:             132
      Number of primitives:            388
      Number of atomic orbitals:       290
      Number of basis functions:       276

      Number of irreps:                  1
      Integral cutoff                 1.00e-12
      Number of functions per irrep: [ 276 ]

 OEINTS: Overlap, kinetic, potential, dipole, and quadrupole integrals
         stored in file 35.

      Computing two-electron integrals...done
      Computed 401583972 non-zero two-electron integrals.
        Stored in file 33.


*** tstart() called on skylm002.palmetto.clemson.edu
*** at Wed Feb  9 04:02:56 2022


	Wfn Parameters:
	--------------------
	Wavefunction         = CCSD
	Number of irreps     = 1
	Number of MOs        = 276
	Number of active MOs = 276
	AO-Basis             = NONE
	Semicanonical        = false
	Reference            = RHF
	Print Level          = 1

	IRREP	# MOs	# FZDC	# DOCC	# SOCC	# VIRT	# FZVR
	-----	-----	------	------	------	------	------
	 A	   276	    0	    51	    0	    225	    0
	Transforming integrals...
	IWL integrals will be deleted.
	(OO|OO)...
	Presorting SO-basis two-electron integrals.
	Sorting File: SO Ints (nn|nn) nbuckets = 1
	Constructing frozen core operators
	Starting first half-transformation.
	Sorting half-transformed integrals.
	First half integral transformation complete.
	Starting second half-transformation.
	Two-electron integral transformation complete.
	(OO|OV)...
	Starting second half-transformation.
	Two-electron integral transformation complete.
	(OO|VV)...
	Starting second half-transformation.
	Two-electron integral transformation complete.
	(OV|OO)...
	Starting first half-transformation.
	Sorting half-transformed integrals.
	First half integral transformation complete.
	Starting second half-transformation.
	Two-electron integral transformation complete.
	(OV|OV)...
	Starting second half-transformation.
	Two-electron integral transformation complete.
	(OV|VV)...
	Starting second half-transformation.
	Two-electron integral transformation complete.
	(VV|OO)...
	Starting first half-transformation.
	Sorting half-transformed integrals.
	First half integral transformation complete.
	Starting second half-transformation.
	Two-electron integral transformation complete.
	(VV|OV)...
	Starting second half-transformation.
	Two-electron integral transformation complete.
	(VV|VV)...
	Starting second half-transformation.
	Two-electron integral transformation complete.
	Frozen core energy     =      0.00000000000000

	Size of irrep 0 of <ab|cd> integrals:   2562.891 (MW) /  20503.125 (MB)
	Total:                                  2562.891 (MW) /  20503.125 (MB)

	Size of irrep 0 of <ia|bc> integrals:    580.922 (MW) /   4647.375 (MB)
	Total:                                   580.922 (MW) /   4647.375 (MB)

	Size of irrep 0 of tijab amplitudes:     131.676 (MW) /   1053.405 (MB)
	Total:                                   131.676 (MW) /   1053.405 (MB)

	Nuclear Rep. energy          =    862.21894009297171
	SCF energy                   =   -576.44620458367262
	One-electron energy          =  -2493.23964525246402
	Two-electron energy          =   1054.57373268385072
	Reference energy             =   -576.44697247564159

*** tstop() called on skylm002.palmetto.clemson.edu at Wed Feb  9 04:16:49 2022
Module time:
	user time   =     376.19 seconds =       6.27 minutes
	system time =     156.05 seconds =       2.60 minutes
	total time  =        833 seconds =      13.88 minutes
Total time:
	user time   =     663.37 seconds =      11.06 minutes
	system time =     168.77 seconds =       2.81 minutes
	total time  =       1270 seconds =      21.17 minutes
            **************************
            *                        *
            *        CCENERGY        *
            *                        *
            **************************

    Nuclear Rep. energy (wfn)     =  862.218940092971707
    SCF energy          (wfn)     = -576.446204583672625
    Reference energy    (file100) = -576.446972475641587

    Input parameters:
    -----------------
    Wave function   =     CCSD
    Reference wfn   =     RHF
    Brueckner       =     No
    Memory (Mbytes) =     62000.0
    Maxiter         =     50
    R_Convergence   =     1.0e-07
    E_Convergence   =     1.0e-08
    Restart         =     Yes
    DIIS            =     Yes
    AO Basis        =     NONE
    ABCD            =     NEW
    Cache Level     =     2
    Cache Type      =     LOW
    Print Level     =     1
    Num. of threads =     1
    # Amps to Print =     10
    Print MP2 Amps? =     No
    Analyze T2 Amps =     No
    Print Pair Ener =     No
    Local CC        =     No
    SCS-MP2         =     False
    SCSN-MP2        =     False
    SCS-CCSD        =     False

MP2 correlation energy -1.9849640670141300
                Solving CC Amplitude Equations
                ------------------------------
  Iter             Energy              RMS        T1Diag      D1Diag    New D1Diag    D2Diag
  ----     ---------------------    ---------   ----------  ----------  ----------   --------
     0        -1.984964067014130    0.000e+00    0.000000    0.000000    0.000000    0.178877
     1        -2.015200805165127    1.355e-01    0.007386    0.032411    0.032411    0.166708
     2        -2.068578105590500    4.683e-02    0.007356    0.028722    0.028722    0.180078
     3        -2.080960222148432    2.030e-02    0.008493    0.038466    0.038466    0.183691
     4        -2.081054814052379    6.160e-03    0.008620    0.038864    0.038864    0.185172
     5        -2.081172235051663    3.014e-03    0.008715    0.040605    0.040605    0.186206
     6        -2.081269631348233    8.442e-04    0.008744    0.041154    0.041154    0.186494
     7        -2.081243638856865    3.482e-04    0.008751    0.041363    0.041363    0.186550
     8        -2.081233799708989    1.273e-04    0.008755    0.041467    0.041467    0.186565
     9        -2.081239389840186    5.760e-05    0.008757    0.041510    0.041510    0.186565
    10        -2.081235505016903    2.994e-05    0.008758    0.041538    0.041538    0.186562
    11        -2.081235620822108    1.113e-05    0.008758    0.041545    0.041545    0.186561
    12        -2.081235093947856    5.360e-06    0.008759    0.041548    0.041548    0.186560
    13        -2.081234993894918    2.195e-06    0.008758    0.041547    0.041547    0.186560
    14        -2.081234995017638    1.166e-06    0.008758    0.041548    0.041548    0.186560
    15        -2.081235005715555    5.946e-07    0.008758    0.041547    0.041547    0.186560
    16        -2.081235009236234    2.069e-07    0.008758    0.041547    0.041547    0.186560
    17        -2.081235009571319    9.945e-08    0.008758    0.041547    0.041547    0.186560

    Iterations converged.


    Largest TIA Amplitudes:
             46   1        -0.0196640801
             30   1         0.0160931112
             40   1         0.0143807542
             49  49        -0.0129111414
             49  92         0.0105901093
             49  50         0.0103561489
             42   1        -0.0099017179
             49   0         0.0094045941
             50  49        -0.0079421293
             48   1         0.0076179206

    Largest TIjAb Amplitudes:
     49  49   0   0        -0.0830530739
     50  50   1   1        -0.0710888326
     49  50   1   0         0.0456264623
     50  49   0   1         0.0456264623
     50  50   0   0        -0.0342746431
     49  49   1   1        -0.0290149840
     40  49   0  21        -0.0175032452
     49  40  21   0        -0.0175032452
     40  50   1  21         0.0165462859
     50  40  21   1         0.0165462859

    SCF energy       (wfn)                    = -576.446204583672625
    Reference energy (file100)                = -576.446972475641587

    Opposite-spin MP2 correlation energy      =   -1.468169099560402
    Same-spin MP2 correlation energy          =   -0.516794967453728
    Singles MP2 correlation energy            =   -0.000000000000000
    MP2 correlation energy                    =   -1.984964067014130
      * MP2 total energy                      = -578.431936542655762

    Opposite-spin CCSD correlation energy     =   -1.616562877637389
    Same-spin CCSD correlation energy         =   -0.464672131933930
    Singles CCSD correlation energy           =    0.000000000000000
    CCSD correlation energy                   =   -2.081235009571319
      * CCSD total energy                     = -578.528207485212874


			**************************
			*                        *
			*         CCHBAR         *
			*                        *
			**************************


			**************************
			*        CCLAMBDA        *
			**************************


	Nuclear Rep. energy (wfn)     =  862.218940092971707
	Reference           (wfn)     =                    0
	SCF energy          (wfn)     = -576.446204583672625
	Reference energy    (CC_INFO) = -576.446972475641587
	CCSD energy         (CC_INFO) =   -2.081235009571319
	Total CCSD energy   (CC_INFO) = -578.528207485212874

	Input parameters:
	-----------------
	Maxiter           =     50
	Convergence       = 1.0e-07
	Restart           =     No
	Cache Level       =     2
	Model III         =     No
	DIIS              =     Yes
	AO Basis          =     No
	ABCD              =     NEW
	Local CC          =     No
	Parameters for left-handed eigenvectors:
	    Irr   Root  Ground-State?    EOM energy        R0
	  1   0     0        Yes       0.0000000000   1.0000000000
	Labels for eigenvector 1:
	LIA 0 -1, Lia 0 -1, LIJAB 0 -1, Lijab 0 -1, LIjAb 0 -1, 2LIjAb - LIjbA 0 -1
	Symmetry of left-hand state: A
	Symmetry of left-hand eigenvector: A

	          Solving Lambda Equations
	          ------------------------
	Iter     PseudoEnergy or Norm         RMS  
	----     ---------------------     --------
	   0        -2.081426139684877    0.000e+00
	   1        -2.022251513394223    3.734e-02
	   2        -2.016583732394910    7.738e-03
	   3        -2.015146012425208    3.986e-03
	   4        -2.014730480977132    1.424e-03
	   5        -2.014827308856100    7.619e-04
	   6        -2.014846252114316    2.763e-04
	   7        -2.014834932334991    1.210e-04
	   8        -2.014836998056575    4.704e-05
	   9        -2.014838497719451    1.914e-05
	  10        -2.014838245627508    7.737e-06
	  11        -2.014838352324767    3.405e-06
	  12        -2.014838193752434    1.655e-06
	  13        -2.014838149943011    8.183e-07
	  14        -2.014838148631537    4.177e-07
	  15        -2.014838144339305    2.035e-07
	  16        -2.014838144891868    9.677e-08

	Largest LIA Amplitudes:
	         46   1        -0.0128831940
	         30   1         0.0104966929
	         40   1         0.0104316115
	         49  49        -0.0102929994
	         49  92         0.0085451254
	         49  50         0.0082435844
	         49   0         0.0070144887
	         42   1        -0.0065458945
	         50  49        -0.0060285900
	         49  47        -0.0059446542

	Largest LIjAb Amplitudes:
	 49  49   0   0        -0.0782512022
	 50  50   1   1        -0.0666056205
	 49  50   1   0         0.0431781834
	 50  49   0   1         0.0431781834
	 50  50   0   0        -0.0303337856
	 49  49   1   1        -0.0260436008
	 40  49   0  21        -0.0166908697
	 49  40  21   0        -0.0166908697
	 40  50   1  21         0.0157087650
	 50  40  21   1         0.0157087650

	Iterations converged.

	Overlap <L|e^T> =        0.23527217818

			**************************
			*                        *
			*        CCDENSITY       *
			*                        *
			**************************


	Input parameters:
	-----------------
	Wave function    =   CCSD
	Reference wfn    =   RHF
	Dertype          = 1
	Tolerance        = 1.0e-14
	Cache Level      = 2
	AO Basis         = No
	OPDM Only        = No
	Relax OPDM       = Yes
	Compute Xi       = No
	Use Zeta         = No
	Xi connected     = Yes
	Compute NO       = No

	Nuclear Rep. energy (wfn)     =  862.218940092971707
	SCF energy          (wfn)     = -576.446204583672625
	Reference energy    (file100) = -576.446972475641587
	CCSD energy         (CC_INFO) =   -2.081235009571319
	Total CCSD energy   (CC_INFO) = -578.528207485212874
	Number of States = 1

	Ground?  State     EOM Energy       R0
	  Yes     0  A    0.0000000000   1.00000000

	Virial Theorem Data:
	--------------------
	Kinetic energy (ref)   =  575.716041860643827
	Kinetic energy (corr)  =    1.954162427960690
	Kinetic energy (total) =  577.670204288604509
	-V/T (ref)             =    2.001269602654523
	-V/T (corr)            =    2.065026622041464
	-V/T (total)           =    2.001485282069663
    Molecular point group: c1
    Full point group: C1

    Geometry (in Bohr), charge = 0, multiplicity = 1:

       Center              X                  Y                   Z       
    ------------   -----------------  -----------------  -----------------
         C            3.557794602906     1.263744444077    -3.840398467889
         C            2.886696163973     1.053567214678    -1.067391674679
         C            4.451578368464     2.720126133349     0.734528326360
         C            6.839162290304     1.151473925237     1.304070993585
         C            7.367147990305    -0.312691545946    -1.160674225410
         C            4.745347633023    -0.814136042514    -2.264552072418
         C            0.291013711471     0.272692695390    -0.284198461435
         C           -0.028758184575    -1.443832471765     1.730432891737
         C           -2.451891634287    -2.144480558123     2.545519012800
         C           -4.599780804648    -1.137190392840     1.351293359734
         C           -4.304945734554     0.573697721283    -0.655017529308
         C           -1.875103757097     1.275405943997    -1.460467936857
         H           -1.645683446562     2.620713311067    -3.015342151788
         H           -5.969352255169     1.366738297367    -1.592094920400
         O           -6.985609170918    -1.831708207646     2.142619954222
         H           -2.667550959177    -3.486490353104     4.104278504645
         H            1.645713017384    -2.247742752523     2.644918606999
         H            4.132851490966    -2.754346201414    -2.632077347653
         H            2.119958685829     0.697981229102    -5.213006708294
         H            4.769706202780     2.836100515395    -4.425854518817
         H            8.408077170348    -2.081836137064    -0.813981290981
         H            8.517480974655     0.835613762272    -2.471042446146
         H            6.394950039171    -0.218125871175     2.815288755566
         H            8.452967614458     2.303114600066     1.948824760604
         H            3.371658469275     3.174847151466     2.454808379326
         H            4.950932827938     4.526451085986    -0.186667806374
         C           -8.799372085585    -0.586480736180     0.673280412907
         H          -10.682102444926    -1.134544776264     1.297742300791
         H           -8.572497236141     1.448168485839     0.882414513486
         H           -8.554365313967    -1.104452777442    -1.303250282123

	Presorting MO-basis TPDM.
	Sorting File: MO TPDM (AA|AA) nbuckets = 1
	Starting first half-transformation.
	Sorting half-transformed TPDM.
	First half integral transformation complete.


  -Total gradient:
     Atom            X                  Y                   Z
    ------   -----------------  -----------------  -----------------
       1       -0.000278053493    -0.000148981043     0.000231963673
       2       -0.003704447060     0.001047717270     0.002429996619
       3        0.000581725300    -0.001441215974    -0.000871569937
       4       -0.001085701624    -0.000786115088    -0.000582144717
       5       -0.001867222648     0.001049258320     0.000150338308
       6        0.003017084919    -0.000382607751     0.000311489059
       7        0.004425398688    -0.002238364666     0.002676913694
       8        0.007197222626    -0.000951415039     0.001459707464
       9       -0.003935668569     0.003409901708    -0.003883092414
      10        0.006163615804    -0.001340210021     0.001644501069
      11       -0.006911082513    -0.005607355311     0.006395639498
      12       -0.006072267000     0.004172319401    -0.005206017797
      13        0.000930903566    -0.000023017973     0.000086441314
      14       -0.012383223635    -0.001088828660     0.001211885115
      15       -0.018128226515     0.003795225708    -0.004622666239
      16        0.002519877665    -0.000203481286     0.000273249079
      17        0.000916922325     0.000512374358    -0.000787552064
      18       -0.000484279122     0.000712785985     0.000152568133
      19        0.000241188351    -0.000222078887     0.000893951627
      20       -0.000054277038    -0.000636343914     0.000953454157
      21       -0.000830448263     0.000814724061    -0.000200355013
      22       -0.000874637183    -0.000360065785     0.000641184687
      23       -0.000023348924     0.000795606627    -0.001214532250
      24       -0.000731448303    -0.000386895624    -0.000376719629
      25        0.000051238601    -0.000515134467    -0.000813655317
      26       -0.000246045032    -0.001009050888     0.000021162260
      27        0.015466928479     0.005307365938    -0.006102568752
      28        0.005155797785     0.004958937516    -0.005760896792
      29        0.005496304358    -0.010713744340     0.000244533873
      30        0.005446168455     0.001478689825     0.010642791288


			-----------------------------------------
			 OPTKING 2.0: for geometry optimizations 
			  - R.A. King,  Bethel University        
			-----------------------------------------

	Internal coordinates to be generated automatically.
	Detected frag 1 with atoms:  1 2 3 4 5 6 7 8 9 10 11 12 13 14 15 16 17 18 19 20
	 21 22 23 24 25 26 27 28 29 30
	---Fragment 1 Bond Connectivity---
	 1 : 2 6 19 20
	 2 : 1 3 6 7
	 3 : 2 4 25 26
	 4 : 3 5 23 24
	 5 : 4 6 21 22
	 6 : 1 2 5 18
	 7 : 2 8 12
	 8 : 7 9 17
	 9 : 8 10 16
	 10 : 9 11 15
	 11 : 10 12 14
	 12 : 7 11 13
	 13 : 12
	 14 : 11
	 15 : 10 27
	 16 : 9
	 17 : 8
	 18 : 6
	 19 : 1
	 20 : 1
	 21 : 5
	 22 : 5
	 23 : 4
	 24 : 4
	 25 : 3
	 26 : 3
	 27 : 15 28 29 30
	 28 : 27
	 29 : 27
	 30 : 27

	---Fragment 1 Geometry and Gradient---
	 C           3.5577946029        1.2637444441       -3.8403984679
	 C           2.8866961640        1.0535672147       -1.0673916747
	 C           4.4515783685        2.7201261333        0.7345283264
	 C           6.8391622903        1.1514739252        1.3040709936
	 C           7.3671479903       -0.3126915459       -1.1606742254
	 C           4.7453476330       -0.8141360425       -2.2645520724
	 C           0.2910137115        0.2726926954       -0.2841984614
	 C          -0.0287581846       -1.4438324718        1.7304328917
	 C          -2.4518916343       -2.1444805581        2.5455190128
	 C          -4.5997808046       -1.1371903928        1.3512933597
	 C          -4.3049457346        0.5736977213       -0.6550175293
	 C          -1.8751037571        1.2754059440       -1.4604679369
	 H          -1.6456834466        2.6207133111       -3.0153421518
	 H          -5.9693522552        1.3667382974       -1.5920949204
	 O          -6.9856091709       -1.8317082076        2.1426199542
	 H          -2.6675509592       -3.4864903531        4.1042785046
	 H           1.6457130174       -2.2477427525        2.6449186070
	 H           4.1328514910       -2.7543462014       -2.6320773477
	 H           2.1199586858        0.6979812291       -5.2130067083
	 H           4.7697062028        2.8361005154       -4.4258545188
	 H           8.4080771703       -2.0818361371       -0.8139812910
	 H           8.5174809747        0.8356137623       -2.4710424461
	 H           6.3949500392       -0.2181258712        2.8152887556
	 H           8.4529676145        2.3031146001        1.9488247606
	 H           3.3716584693        3.1748471515        2.4548083793
	 H           4.9509328279        4.5264510860       -0.1866678064
	 C          -8.7993720856       -0.5864807362        0.6732804129
	 H         -10.6821024449       -1.1345447763        1.2977423008
	 H          -8.5724972361        1.4481684858        0.8824145135
	 H          -8.5543653140       -1.1044527774       -1.3032502821
	            -0.0002780535       -0.0001489810        0.0002319637
	            -0.0037044471        0.0010477173        0.0024299966
	             0.0005817253       -0.0014412160       -0.0008715699
	            -0.0010857016       -0.0007861151       -0.0005821447
	            -0.0018672226        0.0010492583        0.0001503383
	             0.0030170849       -0.0003826078        0.0003114891
	             0.0044253987       -0.0022383647        0.0026769137
	             0.0071972226       -0.0009514150        0.0014597075
	            -0.0039356686        0.0034099017       -0.0038830924
	             0.0061636158       -0.0013402100        0.0016445011
	            -0.0069110825       -0.0056073553        0.0063956395
	            -0.0060722670        0.0041723194       -0.0052060178
	             0.0009309036       -0.0000230180        0.0000864413
	            -0.0123832236       -0.0010888287        0.0012118851
	            -0.0181282265        0.0037952257       -0.0046226662
	             0.0025198777       -0.0002034813        0.0002732491
	             0.0009169223        0.0005123744       -0.0007875521
	            -0.0004842791        0.0007127860        0.0001525681
	             0.0002411884       -0.0002220789        0.0008939516
	            -0.0000542770       -0.0006363439        0.0009534542
	            -0.0008304483        0.0008147241       -0.0002003550
	            -0.0008746372       -0.0003600658        0.0006411847
	            -0.0000233489        0.0007956066       -0.0012145323
	            -0.0007314483       -0.0003868956       -0.0003767196
	             0.0000512386       -0.0005151345       -0.0008136553
	            -0.0002460450       -0.0010090509        0.0000211623
	             0.0154669285        0.0053073659       -0.0061025688
	             0.0051557978        0.0049589375       -0.0057608968
	             0.0054963044       -0.0107137443        0.0002445339
	             0.0054461685        0.0014786898        0.0106427913

	Previous optimization step data not found.  Starting new optimization.

	---Fragment 1 Intrafragment Coordinates---
	 - Coordinate -           - BOHR/RAD -       - ANG/DEG -
	 R(1,2)           =         2.860789	       1.513864
	 R(1,6)           =         2.865512	       1.516364
	 R(1,19)          =         2.066764	       1.093684
	 R(1,20)          =         2.069732	       1.095255
	 R(2,3)           =         2.910875	       1.540368
	 R(2,6)           =         2.894148	       1.531517
	 R(2,7)           =         2.821476	       1.493061
	 R(3,4)           =         2.913006	       1.541497
	 R(3,25)          =         2.081433	       1.101447
	 R(3,26)          =         2.088245	       1.105052
	 R(4,5)           =         2.915050	       1.542578
	 R(4,23)          =         2.087321	       1.104562
	 R(4,24)          =         2.084790	       1.103224
	 R(5,6)           =         2.888569	       1.528565
	 R(5,21)          =         2.081731	       1.101604
	 R(5,22)          =         2.087806	       1.104820
	 R(6,18)          =         2.067521	       1.094085
	 R(7,8)           =         2.665981	       1.410776
	 R(7,12)          =         2.661035	       1.408159
	 R(8,9)           =         2.650820	       1.402754
	 R(8,17)          =         2.070365	       1.095590
	 R(9,10)          =         2.655981	       1.405485
	 R(9,16)          =         2.068147	       1.094416
	 R(10,11)         =         2.653177	       1.404001
	 R(10,15)         =         2.607821	       1.379999
	 R(11,12)         =         2.654294	       1.404592
	 R(11,14)         =         2.068158	       1.094422
	 R(12,13)         =         2.068845	       1.094786
	 R(15,27)         =         2.645616	       1.400000
	 R(27,28)         =         2.057912	       1.089000
	 R(27,29)         =         2.057913	       1.089001
	 R(27,30)         =         2.057911	       1.089000
	 B(1,2,3)         =         2.017351	     115.585685
	 B(1,2,6)         =         1.042344	      59.721936
	 B(1,2,7)         =         2.100422	     120.345328
	 B(1,6,2)         =         1.039528	      59.560564
	 B(1,6,5)         =         2.049282	     117.415187
	 B(1,6,18)        =         2.048738	     117.384025
	 B(2,1,6)         =         1.059720	      60.717500
	 B(2,1,19)        =         2.049292	     117.415782
	 B(2,1,20)        =         2.057096	     117.862942
	 B(2,3,4)         =         1.826944	     104.676198
	 B(2,3,25)        =         1.936680	     110.963570
	 B(2,3,26)        =         1.929130	     110.530986
	 B(2,6,5)         =         1.888930	     108.227717
	 B(2,6,18)        =         2.081600	     119.266883
	 B(2,7,8)         =         2.092441	     119.888038
	 B(2,7,12)        =         2.119852	     121.458574
	 B(3,2,6)         =         1.854886	     106.277162
	 B(3,2,7)         =         2.072817	     118.763664
	 B(3,4,5)         =         1.827213	     104.691617
	 B(3,4,23)        =         1.897014	     108.690913
	 B(3,4,24)        =         1.979545	     113.419580
	 B(4,3,25)        =         1.962002	     112.414409
	 B(4,3,26)        =         1.934839	     110.858094
	 B(4,5,6)         =         1.819262	     104.236043
	 B(4,5,21)        =         1.956931	     112.123910
	 B(4,5,22)        =         1.932871	     110.745342
	 B(5,4,23)        =         1.897723	     108.731493
	 B(5,4,24)        =         1.980944	     113.499740
	 B(5,6,18)        =         2.094079	     119.981893
	 B(6,1,19)        =         2.043221	     117.067911
	 B(6,1,20)        =         2.053042	     117.630648
	 B(6,2,7)         =         2.125903	     121.805252
	 B(6,5,21)        =         1.949769	     111.713517
	 B(6,5,22)        =         1.934481	     110.837597
	 B(7,8,9)         =         2.108523	     120.809467
	 B(7,8,17)        =         2.079202	     119.129487
	 B(7,12,11)       =         2.107639	     120.758819
	 B(7,12,13)       =         2.079425	     119.142292
	 B(8,7,12)        =         2.070330	     118.621159
	 B(8,9,10)        =         2.095249	     120.048921
	 B(8,9,16)        =         2.092759	     119.906259
	 B(9,8,17)        =         2.095393	     120.057181
	 B(9,10,11)       =         2.088291	     119.650243
	 B(9,10,15)       =         2.097186	     120.159930
	 B(10,9,16)       =         2.095155	     120.043517
	 B(10,11,12)      =         2.096327	     120.110679
	 B(10,11,14)      =         2.094932	     120.030779
	 B(10,15,27)      =         1.910634	     109.471241
	 B(11,10,15)      =         2.097704	     120.189603
	 B(11,12,13)      =         2.096116	     120.098614
	 B(12,11,14)      =         2.091924	     119.858405
	 B(15,27,28)      =         1.910633	     109.471228
	 B(15,27,29)      =         1.910633	     109.471205
	 B(15,27,30)      =         1.910634	     109.471257
	 B(19,1,20)       =         2.012474	     115.306264
	 B(21,5,22)       =         1.871758	     107.243849
	 B(23,4,24)       =         1.878938	     107.655190
	 B(25,3,26)       =         1.875161	     107.438837
	 B(28,27,29)      =         1.910633	     109.471193
	 B(28,27,30)      =         1.910634	     109.471245
	 B(29,27,30)      =         1.910633	     109.471195
	 D(1,2,3,4)       =        -1.487484	     -85.226572
	 D(1,2,3,25)      =         2.675187	     153.276932
	 D(1,2,3,26)      =         0.596675	      34.186976
	 D(1,2,6,5)       =         1.948453	     111.638142
	 D(1,2,6,18)      =        -1.856921	    -106.393716
	 D(1,2,7,8)       =         2.408854	     138.017151
	 D(1,2,7,12)      =        -0.769280	     -44.076485
	 D(1,6,2,3)       =        -1.928884	    -110.516925
	 D(1,6,2,7)       =         1.903190	     109.044759
	 D(1,6,5,4)       =         1.468895	      84.161501
	 D(1,6,5,21)      =        -2.697521	    -154.556588
	 D(1,6,5,22)      =        -0.611214	     -35.019998
	 D(2,1,6,5)       =        -1.674893	     -95.964306
	 D(2,1,6,18)      =         1.911561	     109.524357
	 D(2,3,4,5)       =         0.589407	      33.770540
	 D(2,3,4,23)      =        -1.436065	     -82.280465
	 D(2,3,4,24)      =         2.757968	     158.019943
	 D(2,6,1,19)      =        -1.882068	    -107.834530
	 D(2,6,1,20)      =         1.887309	     108.134828
	 D(2,6,5,4)       =         0.342659	      19.632931
	 D(2,6,5,21)      =         2.459428	     140.914841
	 D(2,6,5,22)      =        -1.737450	     -99.548568
	 D(2,7,8,9)       =         3.108309	     178.092997
	 D(2,7,8,17)      =        -0.045760	      -2.621861
	 D(2,7,12,11)     =        -3.110817	    -178.236678
	 D(2,7,12,13)     =         0.027453	       1.572949
	 D(3,2,1,6)       =         1.651177	      94.605460
	 D(3,2,1,19)      =        -2.759824	    -158.126276
	 D(3,2,1,20)      =        -0.229547	     -13.152074
	 D(3,2,6,5)       =         0.019569	       1.121217
	 D(3,2,6,18)      =         2.497380	     143.089359
	 D(3,2,7,8)       =        -1.201325	     -68.830845
	 D(3,2,7,12)      =         1.903727	     109.075519
	 D(3,4,5,6)       =        -0.573602	     -32.864999
	 D(3,4,5,21)      =        -2.685602	    -153.873654
	 D(3,4,5,22)      =         1.507600	      86.379143
	 D(4,3,2,6)       =        -0.375127	     -21.493186
	 D(4,3,2,7)       =         2.100956	     120.375901
	 D(4,5,6,18)      =        -2.129570	    -122.015351
	 D(5,4,3,25)      =         2.693170	     154.307289
	 D(5,4,3,26)      =        -1.490910	     -85.422842
	 D(5,6,1,19)      =         2.726225	     156.201164
	 D(5,6,1,20)      =         0.212416	      12.170522
	 D(5,6,2,7)       =        -2.431542	    -139.317099
	 D(6,1,2,7)       =        -1.944837	    -111.430967
	 D(6,2,1,19)      =         1.872184	     107.268264
	 D(6,2,1,20)      =        -1.880724	    -107.757534
	 D(6,2,3,25)      =        -2.495641	    -142.989682
	 D(6,2,3,26)      =         1.709033	      97.920361
	 D(6,2,7,8)       =         1.168456	      66.947624
	 D(6,2,7,12)      =        -2.009677	    -115.146011
	 D(6,5,4,23)      =         1.451379	      83.157872
	 D(6,5,4,24)      =        -2.741271	    -157.063259
	 D(7,2,1,19)      =        -0.072653	      -4.162703
	 D(7,2,1,20)      =         2.457624	     140.811498
	 D(7,2,3,25)      =        -0.019558	      -1.120595
	 D(7,2,3,26)      =        -2.098070	    -120.210552
	 D(7,2,6,18)      =         0.046269	       2.651043
	 D(7,8,9,10)      =         0.001304	       0.074700
	 D(7,8,9,16)      =         3.135653	     179.659684
	 D(7,12,11,10)    =         0.004887	       0.280010
	 D(7,12,11,14)    =        -3.139052	    -179.854428
	 D(8,7,12,11)     =        -0.005315	      -0.304531
	 D(8,7,12,13)     =         3.132955	     179.505096
	 D(8,9,10,11)     =        -0.001796	      -0.102888
	 D(8,9,10,15)     =         3.136800	     179.725380
	 D(9,8,7,12)      =         0.002225	       0.127485
	 D(9,10,11,12)    =        -0.001268	      -0.072650
	 D(9,10,11,14)    =        -3.140510	    -179.937978
	 D(9,10,15,27)    =         3.141593	     180.000000
	 D(10,9,8,17)     =        -3.127697	    -179.203838
	 D(10,11,12,13)   =        -3.133351	    -179.527802
	 D(10,15,27,28)   =         3.141593	     180.000000
	 D(10,15,27,29)   =        -1.047197	     -59.999975
	 D(10,15,27,30)   =         1.047198	      60.000007
	 D(11,10,9,16)    =        -3.136135	    -179.687298
	 D(11,10,15,27)   =        -0.003013	      -0.172648
	 D(12,7,8,17)     =         3.131341	     179.412627
	 D(12,11,10,15)   =        -3.139862	    -179.900866
	 D(13,12,11,14)   =         0.005895	       0.337760
	 D(14,11,10,15)   =         0.004081	       0.233806
	 D(15,10,9,16)    =         0.002460	       0.140969
	 D(16,9,8,17)     =         0.006652	       0.381147
	 D(18,6,1,19)     =         0.029493	       1.689827
	 D(18,6,1,20)     =        -2.484316	    -142.340815
	 D(18,6,5,21)     =        -0.012801	      -0.733441
	 D(18,6,5,22)     =         2.073506	     118.803150
	 D(21,5,4,23)     =        -0.660621	     -37.850783
	 D(21,5,4,24)     =         1.429915	      81.928087
	 D(22,5,4,23)     =        -2.750604	    -157.597986
	 D(22,5,4,24)     =        -0.660068	     -37.819116
	 D(23,4,3,25)     =         0.667698	      38.256283
	 D(23,4,3,26)     =         2.766803	     158.526152
	 D(24,4,3,25)     =        -1.421454	     -81.443309
	 D(24,4,3,26)     =         0.677651	      38.826560

	Current energy   :      -578.5282074852

	Generating empirical Hessian (Schlegel '84) for each fragment.
	Taking RFO optimization step.
	Going to follow RFO solution 1.
	Using RFO vector 1.
	Norm of target step-size    0.40788
	Projected energy change by RFO approximation:        -0.0417967487

	Back-transformation to cartesian coordinates...
	Successfully converged to displaced geometry.

	--- Internal Coordinate Step in ANG or DEG, aJ/ANG or AJ/DEG ---
	 ---------------------------------------------------------------------------
	   Coordinate                Previous        Force       Change         New 
	   ----------                --------       ------       ------       ------
	    1 R(1,2)          =      1.513864     0.009743     0.002405     1.516269
	    2 R(1,6)          =      1.516364     0.008687     0.003354     1.519718
	    3 R(1,19)         =      1.093684     0.005773     0.000945     1.094629
	    4 R(1,20)         =      1.095255     0.006467     0.001063     1.096318
	    5 R(2,3)          =      1.540368     0.028618     0.004915     1.545284
	    6 R(2,6)          =      1.531517     0.004443    -0.001180     1.530337
	    7 R(2,7)          =      1.493061     0.054962     0.009294     1.502354
	    8 R(3,4)          =      1.541497     0.018555     0.003147     1.544643
	    9 R(3,25)         =      1.101447     0.006687     0.001119     1.102565
	   10 R(3,26)         =      1.105052     0.007753     0.001310     1.106362
	   11 R(4,5)          =      1.542578     0.016951     0.003095     1.545673
	   12 R(4,23)         =      1.104562     0.011505     0.001942     1.106504
	   13 R(4,24)         =      1.103224     0.007385     0.001242     1.104466
	   14 R(5,6)          =      1.528565     0.027909     0.006027     1.534592
	   15 R(5,21)         =      1.101604     0.009401     0.001573     1.103178
	   16 R(5,22)         =      1.104820     0.008917     0.001506     1.106326
	   17 R(6,18)         =      1.094085     0.004552     0.000746     1.094831
	   18 R(7,8)          =      1.410776    -0.014748    -0.002218     1.408558
	   19 R(7,12)         =      1.408159    -0.054265    -0.007842     1.400318
	   20 R(8,9)          =      1.402754    -0.034543    -0.003970     1.398784
	   21 R(8,17)         =      1.095590    -0.001605    -0.000264     1.095326
	   22 R(9,10)         =      1.405485     0.014076     0.002580     1.408064
	   23 R(9,16)         =      1.094416    -0.000620    -0.000102     1.094314
	   24 R(10,11)        =      1.404001     0.115310     0.015127     1.419127
	   25 R(10,15)        =      1.379999     0.125867     0.014979     1.394979
	   26 R(11,12)        =      1.404592     0.026063     0.002901     1.407493
	   27 R(11,14)        =      1.094422    -0.074141    -0.012156     1.082266
	   28 R(12,13)        =      1.094786    -0.000192    -0.000031     1.094754
	   29 R(15,27)        =      1.400000     0.169823     0.021605     1.421604
	   30 R(27,28)        =      1.089000     0.064144     0.010353     1.099353
	   31 R(27,29)        =      1.089001     0.082073     0.013246     1.102247
	   32 R(27,30)        =      1.089000     0.081940     0.013225     1.102224
	   33 B(1,2,3)        =    115.585685    -0.000007    -0.252401   115.333284
	   34 B(1,2,6)        =     59.721936     0.000006     0.120303    59.842239
	   35 B(1,2,7)        =    120.345328    -0.000003    -0.037059   120.308268
	   36 B(1,6,2)        =     59.560564     0.000012     0.058622    59.619186
	   37 B(1,6,5)        =    117.415187     0.000014     0.129442   117.544629
	   38 B(1,6,18)       =    117.384025     0.000009    -0.011779   117.372246
	   39 B(2,1,6)        =     60.717500    -0.000018    -0.178924    60.538576
	   40 B(2,1,19)       =    117.415782     0.000015    -0.022577   117.393205
	   41 B(2,1,20)       =    117.862942     0.000028     0.336941   118.199882
	   42 B(2,3,4)        =    104.676198     0.000006     0.301485   104.977683
	   43 B(2,3,25)       =    110.963570     0.000025    -0.113478   110.850092
	   44 B(2,3,26)       =    110.530986     0.000005    -0.180383   110.350602
	   45 B(2,6,5)        =    108.227717     0.000024     0.376975   108.604692
	   46 B(2,6,18)       =    119.266883     0.000006    -0.152785   119.114098
	   47 B(2,7,8)        =    119.888038     0.000185     0.820160   120.708197
	   48 B(2,7,12)       =    121.458574     0.000172     0.309719   121.768293
	   49 B(3,2,6)        =    106.277162    -0.000006    -0.343485   105.933678
	   50 B(3,2,7)        =    118.763664     0.000004     0.234149   118.997812
	   51 B(3,4,5)        =    104.691617    -0.000009    -0.127271   104.564346
	   52 B(3,4,23)       =    108.690913     0.000001     0.069923   108.760836
	   53 B(3,4,24)       =    113.419580     0.000014     0.277735   113.697315
	   54 B(4,3,25)       =    112.414409    -0.000015    -0.095232   112.319177
	   55 B(4,3,26)       =    110.858094    -0.000006    -0.005523   110.852571
	   56 B(4,5,6)        =    104.236043    -0.000004    -0.149684   104.086359
	   57 B(4,5,21)       =    112.123910    -0.000003    -0.198242   111.925668
	   58 B(4,5,22)       =    110.745342     0.000002     0.068503   110.813845
	   59 B(5,4,23)       =    108.731493     0.000004     0.089083   108.820577
	   60 B(5,4,24)       =    113.499740     0.000003    -0.217074   113.282666
	   61 B(5,6,18)       =    119.981893    -0.000034    -0.211000   119.770894
	   62 B(6,1,19)       =    117.067911     0.000019     0.191812   117.259723
	   63 B(6,1,20)       =    117.630648     0.000022     0.118525   117.749173
	   64 B(6,2,7)        =    121.805252     0.000008     0.195360   122.000612
	   65 B(6,5,21)       =    111.713517     0.000022     0.372284   112.085800
	   66 B(6,5,22)       =    110.837597    -0.000004     0.021089   110.858686
	   67 B(7,8,9)        =    120.809467     0.000308     0.560998   121.370465
	   68 B(7,8,17)       =    119.129487    -0.000052     0.090317   119.219804
	   69 B(7,12,11)      =    120.758819     0.000399     1.092791   121.851610
	   70 B(7,12,13)      =    119.142292    -0.000126    -0.273463   118.868829
	   71 B(8,7,12)       =    118.621159    -0.000357    -1.130961   117.490199
	   72 B(8,9,10)       =    120.048921     0.000482     1.257514   121.306435
	   73 B(8,9,16)       =    119.906259    -0.000041     0.085586   119.991845
	   74 B(9,8,17)       =    120.057181    -0.000256    -0.650819   119.406362
	   75 B(9,10,11)      =    119.650243    -0.000855    -2.016736   117.633507
	   76 B(9,10,15)      =    120.159930    -0.003110    -7.667569   112.492361
	   77 B(10,9,16)      =    120.043517    -0.000441    -1.342909   118.700608
	   78 B(10,11,12)     =    120.110679     0.000024     0.236391   120.347070
	   79 B(10,11,14)     =    120.030779     0.000670     2.344919   122.375698
	   80 B(10,15,27)     =    109.471241     0.006810    16.677660   126.148901
	   81 B(11,10,15)     =    120.189603     0.003965     9.684353   129.873956
	   82 B(11,12,13)     =    120.098614    -0.000273    -0.819279   119.279335
	   83 B(12,11,14)     =    119.858405    -0.000693    -2.581298   117.277108
	   84 B(15,27,28)     =    109.471228    -0.000980    -3.006161   106.465067
	   85 B(15,27,29)     =    109.471205     0.000766     3.582754   113.053960
	   86 B(15,27,30)     =    109.471257     0.000767     3.664072   113.135329
	   87 B(19,1,20)      =    115.306264    -0.000044    -0.313702   114.992562
	   88 B(21,5,22)      =    107.243849    -0.000013    -0.107297   107.136551
	   89 B(23,4,24)      =    107.655190    -0.000013    -0.083169   107.572021
	   90 B(25,3,26)      =    107.438837    -0.000014     0.085081   107.523918
	   91 B(28,27,29)     =    109.471193    -0.000216    -0.631586   108.839607
	   92 B(28,27,30)     =    109.471245    -0.000217    -0.881198   108.590047
	   93 B(29,27,30)     =    109.471195    -0.000120    -2.830846   106.640349
	   94 D(1,2,3,4)      =    -85.226572    -0.000001    -0.032797   -85.259369
	   95 D(1,2,3,25)     =    153.276932    -0.000001    -0.040604   153.236328
	   96 D(1,2,3,26)     =     34.186976    -0.000001     0.041966    34.228942
	   97 D(1,2,6,5)      =    111.638142     0.000001    -0.029927   111.608215
	   98 D(1,2,6,18)     =   -106.393716    -0.000003    -0.077832  -106.471548
	   99 D(1,2,7,8)      =    138.017151     0.000001     0.074796   138.091947
	  100 D(1,2,7,12)     =    -44.076485    -0.000001     0.016167   -44.060318
	  101 D(1,6,2,3)      =   -110.516925     0.000001     0.105540  -110.411386
	  102 D(1,6,2,7)      =    109.044759    -0.000001    -0.069499   108.975260
	  103 D(1,6,5,4)      =     84.161501     0.000002     0.125588    84.287089
	  104 D(1,6,5,21)     =   -154.556588     0.000004    -0.005988  -154.562576
	  105 D(1,6,5,22)     =    -35.019998     0.000003     0.120434   -34.899564
	  106 D(2,1,6,5)      =    -95.964306    -0.000006    -0.428014   -96.392320
	  107 D(2,1,6,18)     =    109.524357     0.000002    -0.159477   109.364880
	  108 D(2,3,4,5)      =     33.770540    -0.000003     0.006485    33.777025
	  109 D(2,3,4,23)     =    -82.280465    -0.000003    -0.063620   -82.344085
	  110 D(2,3,4,24)     =    158.019943    -0.000001    -0.184803   157.835139
	  111 D(2,6,1,19)     =   -107.834530    -0.000001     0.173160  -107.661370
	  112 D(2,6,1,20)     =    108.134828     0.000004     0.290581   108.425409
	  113 D(2,6,5,4)      =     19.632931    -0.000003    -0.114166    19.518765
	  114 D(2,6,5,21)     =    140.914841    -0.000002    -0.245742   140.669100
	  115 D(2,6,5,22)     =    -99.548568    -0.000003    -0.119320   -99.667888
	  116 D(2,7,8,9)      =    178.092997     0.000000    -0.010370   178.082627
	  117 D(2,7,8,17)     =     -2.621861     0.000001     0.032659    -2.589202
	  118 D(2,7,12,11)    =   -178.236678    -0.000000     0.010074  -178.226605
	  119 D(2,7,12,13)    =      1.572949     0.000000     0.026105     1.599054
	  120 D(3,2,1,6)      =     94.605460    -0.000000    -0.234294    94.371166
	  121 D(3,2,1,19)     =   -158.126276     0.000002    -0.059250  -158.185526
	  122 D(3,2,1,20)     =    -13.152074    -0.000002    -0.167954   -13.320028
	  123 D(3,2,6,5)      =      1.121217     0.000002     0.075613     1.196830
	  124 D(3,2,6,18)     =    143.089359    -0.000002     0.027708   143.117066
	  125 D(3,2,7,8)      =    -68.830845    -0.000002    -0.122006   -68.952851
	  126 D(3,2,7,12)     =    109.075519    -0.000004    -0.180635   108.894884
	  127 D(3,4,5,6)      =    -32.864999     0.000005     0.216585   -32.648414
	  128 D(3,4,5,21)     =   -153.873654     0.000000    -0.031938  -153.905591
	  129 D(3,4,5,22)     =     86.379143     0.000004     0.189629    86.568773
	  130 D(4,3,2,6)      =    -21.493186    -0.000000    -0.054505   -21.547691
	  131 D(4,3,2,7)      =    120.375901     0.000002     0.105947   120.481847
	  132 D(4,5,6,18)     =   -122.015351    -0.000003    -0.094114  -122.109465
	  133 D(5,4,3,25)     =    154.307289     0.000003     0.007541   154.314830
	  134 D(5,4,3,26)     =    -85.422842    -0.000004     0.047526   -85.375316
	  135 D(5,6,1,19)     =    156.201164    -0.000007    -0.254853   155.946310
	  136 D(5,6,1,20)     =     12.170522    -0.000002    -0.137433    12.033089
	  137 D(5,6,2,7)      =   -139.317099     0.000000    -0.099425  -139.416525
	  138 D(6,1,2,7)      =   -111.430967    -0.000003    -0.301722  -111.732689
	  139 D(6,2,1,19)     =    107.268264     0.000002     0.175044   107.443309
	  140 D(6,2,1,20)     =   -107.757534    -0.000002     0.066340  -107.691194
	  141 D(6,2,3,25)     =   -142.989682     0.000000    -0.062311  -143.051993
	  142 D(6,2,3,26)     =     97.920361    -0.000000     0.020259    97.940620
	  143 D(6,2,7,8)      =     66.947624    -0.000001    -0.137384    66.810240
	  144 D(6,2,7,12)     =   -115.146011    -0.000003    -0.196014  -115.342025
	  145 D(6,5,4,23)     =     83.157872     0.000005     0.273334    83.431206
	  146 D(6,5,4,24)     =   -157.063259     0.000002     0.091469  -156.971789
	  147 D(7,2,1,19)     =     -4.162703    -0.000001    -0.126678    -4.289381
	  148 D(7,2,1,20)     =    140.811498    -0.000005    -0.235382   140.576117
	  149 D(7,2,3,25)     =     -1.120595     0.000002     0.098140    -1.022455
	  150 D(7,2,3,26)     =   -120.210552     0.000002     0.180710  -120.029842
	  151 D(7,2,6,18)     =      2.651043    -0.000004    -0.147331     2.503712
	  152 D(7,8,9,10)     =      0.074700     0.000000    -0.017058     0.057641
	  153 D(7,8,9,16)     =    179.659684     0.000001     0.009223   179.668907
	  154 D(7,12,11,10)   =      0.280010     0.000000    -0.001228     0.278782
	  155 D(7,12,11,14)   =   -179.854428     0.000001     0.008282  -179.846146
	  156 D(8,7,12,11)    =     -0.304531     0.000000    -0.008048    -0.312579
	  157 D(8,7,12,13)    =    179.505096     0.000001     0.007984   179.513080
	  158 D(8,9,10,11)    =     -0.102888     0.000000     0.005724    -0.097164
	  159 D(8,9,10,15)    =    179.725380     0.000002     0.039619   179.764998
	  160 D(9,8,7,12)     =      0.127485    -0.000000     0.017826     0.145311
	  161 D(9,10,11,12)   =     -0.072650     0.000000     0.006125    -0.066525
	  162 D(9,10,11,14)   =   -179.937978    -0.000000     0.002927  -179.935051
	  163 D(9,10,15,27)   =    180.000000    -0.000000    -0.020552   179.979448
	  164 D(10,9,8,17)    =   -179.203838    -0.000001    -0.065463  -179.269301
	  165 D(10,11,12,13)  =   -179.527802    -0.000000    -0.018379  -179.546181
	  166 D(10,15,27,28)  =    180.000000     0.000001    -0.053856   179.946144
	  167 D(10,15,27,29)  =    -59.999975    -0.000090    -0.599060   -60.599036
	  168 D(10,15,27,30)  =     60.000007     0.000091     0.751569    60.751576
	  169 D(11,10,9,16)   =   -179.687298    -0.000001    -0.026026  -179.713324
	  170 D(11,10,15,27)  =     -0.172648    -0.000000    -0.007021    -0.179668
	  171 D(12,7,8,17)    =    179.412627     0.000001     0.060856   179.473482
	  172 D(12,11,10,15)  =   -179.900866     0.000001     0.000282  -179.900583
	  173 D(13,12,11,14)  =      0.337760     0.000000    -0.008869     0.328891
	  174 D(14,11,10,15)  =      0.233806     0.000001    -0.002916     0.230890
	  175 D(15,10,9,16)   =      0.140969     0.000001     0.007869     0.148838
	  176 D(16,9,8,17)    =      0.381147    -0.000001    -0.039182     0.341965
	  177 D(18,6,1,19)    =      1.689827     0.000001     0.013684     1.703511
	  178 D(18,6,1,20)    =   -142.340815     0.000006     0.131104  -142.209711
	  179 D(18,6,5,21)    =     -0.733441    -0.000002    -0.225690    -0.959131
	  180 D(18,6,5,22)    =    118.803150    -0.000003    -0.099268   118.703882
	  181 D(21,5,4,23)    =    -37.850783    -0.000000     0.024811   -37.825972
	  182 D(21,5,4,24)    =     81.928087    -0.000003    -0.157054    81.771033
	  183 D(22,5,4,23)    =   -157.597986     0.000004     0.246378  -157.351608
	  184 D(22,5,4,24)    =    -37.819116     0.000001     0.064513   -37.754603
	  185 D(23,4,3,25)    =     38.256283     0.000003    -0.062564    38.193719
	  186 D(23,4,3,26)    =    158.526152    -0.000004    -0.022579   158.503574
	  187 D(24,4,3,25)    =    -81.443309     0.000004    -0.183747   -81.627056
	  188 D(24,4,3,26)    =     38.826560    -0.000003    -0.143762    38.682798
	 ---------------------------------------------------------------------------
	Successfully symmetrized geometry.

  ==> Convergence Check <==

  Measures of convergence in internal coordinates in au.
  Criteria marked as inactive (o), active & met (*), and active & unmet ( ).
  --------------------------------------------------------------------------------------------- ~
   Step     Total Energy     Delta E     MAX Force     RMS Force      MAX Disp      RMS Disp    ~
  --------------------------------------------------------------------------------------------- ~
    Convergence Criteria    1.00e-06 *    3.00e-04 *             o    1.20e-03 *             o  ~
  --------------------------------------------------------------------------------------------- ~
      1    -578.52820749   -5.79e+02      8.95e-02      8.83e-03 o    2.91e-01      2.92e-02 o  ~
  ---------------------------------------------------------------------------------------------

	Writing optimization data to binary file.
	Structure for next step:
	Cartesian Geometry (in Angstrom)
	    C     2.2570766730   0.5284677059  -1.8727917064
	    C     1.6922966881   0.4848823007  -0.4663083692
	    C     2.4717885866   1.3065269786   0.5849740446
	    C     3.5970784002   0.3669868221   1.0717072700
	    C     3.9738105777  -0.4663543399  -0.1743745260
	    C     2.6530974411  -0.6066392835  -0.9431453397
	    C     0.2307152091   0.2174959867  -0.2441527061
	    C    -0.1946776505  -0.6406975498   0.7886015889
	    C    -1.5529863724  -0.8684093947   1.0330221429
	    C    -2.5501851992  -0.2493827349   0.2551752396
	    C    -2.1289504140   0.6173296517  -0.7865990848
	    C    -0.7581725900   0.8383472831  -1.0171558164
	    H    -0.4528809742   1.5162405542  -1.8207379685
	    H    -2.8296581650   1.1333837435  -1.4300242998
	    O    -3.8377707995  -0.6090201947   0.6536099158
	    H    -1.8582053604  -1.5439294075   1.8380303192
	    H     0.5551456524  -1.1479550406   1.4051998397
	    H     2.2582760914  -1.6026788799  -1.1682565652
	    H     1.5770978431   0.2880855560  -2.6962342889
	    H     3.0142758590   1.2869057484  -2.1037339922
	    H     4.4007231493  -1.4461599006   0.0989898975
	    H     4.7311466199   0.0602309703  -0.7851995378
	    H     3.1857594645  -0.3108957400   1.8434871298
	    H     4.4565993822   0.8978878958   1.5180387892
	    H     1.8076830690   1.6246399998   1.4055948001
	    H     2.8930944171   2.2199190589   0.1242643327
	    C    -5.0529894449  -0.1561461498   0.0712802164
	    H    -5.8660764462  -0.6395963206   0.6314067372
	    H    -5.1797444765   0.9370887459   0.1322676830
	    H    -5.1503465408  -0.4263072819  -0.9928782067
			--------------------------
			 OPTKING Finished Execution 
			--------------------------

    Structure for next step:
    Molecular point group: c1
    Full point group: C1

    Geometry (in Angstrom), charge = 0, multiplicity = 1:

    C            2.247126020667     0.477453504594    -1.809224861786
    C            1.682346033505     0.433868099297    -0.402741519039
    C            2.461837935117     1.255512780410     0.648540898858
    C            3.587127753100     0.315972620212     1.135274126259
    C            3.963859932107    -0.517368545117    -0.110807674707
    C            2.643146790328    -0.657653489253    -0.879578491406
    C            0.220764548751     0.166481784199    -0.180585855035
    C           -0.204628312468    -0.691711755650     0.852168444024
    C           -1.562937039763    -0.919423601415     1.096588998939
    C           -2.560135870451    -0.300396939272     0.318742092653
    C           -2.138901083636     0.566315450763    -0.723032235854
    C           -0.768123254257     0.787333083074    -0.953588968392
    H           -0.462831637253     1.465226356858    -1.757171123653
    H           -2.839608837354     1.082369544612    -1.366457453414
    O           -3.847721475812    -0.660034400445     0.717176770401
    H           -1.868156028987    -1.594943616868     1.901597178446
    H            0.545194993382    -1.198969248471     1.468766697253
    H            2.248325439085    -1.653693089526    -1.104689717809
    H            1.567147188040     0.237071353758    -2.632667447521
    H            3.004325209571     1.235891550124    -2.040167148488
    H            4.390772505401    -1.497174109604     0.162556749912
    H            4.721195977266     0.009216767199    -0.721632688904
    H            3.175808815798    -0.361909944614     1.907053989043
    H            4.446648738491     0.846873695975     1.581605647191
    H            1.797732414862     1.573625802880     1.469161657650
    H            2.883143767232     2.168904864330     0.187831185238
    C           -5.062940125963    -0.207160353743     0.134847068727
    H           -5.876027130538    -0.690610526448     0.694973591637
    H           -5.189695158095     0.886074546191     0.195834535532
    H           -5.160297222288    -0.477321486939    -0.929311358646


Scratch directory: /scratch1/maxbuskirk/
gradient() will perform analytic gradient computation.

*** tstart() called on skylm002.palmetto.clemson.edu
*** at Wed Feb  9 13:49:23 2022

   => Loading Basis Set <=

    Name: CC-PVDZ
    Role: ORBITAL
    Keyword: BASIS
    atoms 1-12, 27            entry C          line   138 file /home/maxbuskirk/.conda/envs/psifour/share/psi4/basis/cc-pvdz.gbs 
    atoms 13-14, 16-26, 28-30 entry H          line    22 file /home/maxbuskirk/.conda/envs/psifour/share/psi4/basis/cc-pvdz.gbs 
    atoms 15                  entry O          line   198 file /home/maxbuskirk/.conda/envs/psifour/share/psi4/basis/cc-pvdz.gbs 


         ---------------------------------------------------------
                                   SCF
               by Justin Turney, Rob Parrish, Andy Simmonett
                          and Daniel G. A. Smith
                              RHF Reference
                        1 Threads,  59127 MiB Core
         ---------------------------------------------------------

  ==> Geometry <==

    Molecular point group: c1
    Full point group: C1

    Geometry (in Angstrom), charge = 0, multiplicity = 1:

       Center              X                  Y                   Z               Mass       
    ------------   -----------------  -----------------  -----------------  -----------------
         C            2.247126020667     0.477453504594    -1.809224861786    12.000000000000
         C            1.682346033505     0.433868099297    -0.402741519039    12.000000000000
         C            2.461837935117     1.255512780410     0.648540898858    12.000000000000
         C            3.587127753100     0.315972620212     1.135274126259    12.000000000000
         C            3.963859932107    -0.517368545117    -0.110807674707    12.000000000000
         C            2.643146790328    -0.657653489253    -0.879578491406    12.000000000000
         C            0.220764548751     0.166481784199    -0.180585855035    12.000000000000
         C           -0.204628312468    -0.691711755650     0.852168444024    12.000000000000
         C           -1.562937039763    -0.919423601415     1.096588998939    12.000000000000
         C           -2.560135870451    -0.300396939272     0.318742092653    12.000000000000
         C           -2.138901083636     0.566315450763    -0.723032235854    12.000000000000
         C           -0.768123254257     0.787333083074    -0.953588968392    12.000000000000
         H           -0.462831637253     1.465226356858    -1.757171123653     1.007825032230
         H           -2.839608837354     1.082369544612    -1.366457453414     1.007825032230
         O           -3.847721475812    -0.660034400445     0.717176770401    15.994914619570
         H           -1.868156028987    -1.594943616868     1.901597178446     1.007825032230
         H            0.545194993382    -1.198969248471     1.468766697253     1.007825032230
         H            2.248325439085    -1.653693089526    -1.104689717809     1.007825032230
         H            1.567147188040     0.237071353758    -2.632667447521     1.007825032230
         H            3.004325209571     1.235891550124    -2.040167148488     1.007825032230
         H            4.390772505401    -1.497174109604     0.162556749912     1.007825032230
         H            4.721195977266     0.009216767199    -0.721632688904     1.007825032230
         H            3.175808815798    -0.361909944614     1.907053989043     1.007825032230
         H            4.446648738491     0.846873695975     1.581605647191     1.007825032230
         H            1.797732414862     1.573625802880     1.469161657650     1.007825032230
         H            2.883143767232     2.168904864330     0.187831185238     1.007825032230
         C           -5.062940125963    -0.207160353743     0.134847068727    12.000000000000
         H           -5.876027130538    -0.690610526448     0.694973591637     1.007825032230
         H           -5.189695158095     0.886074546191     0.195834535532     1.007825032230
         H           -5.160297222288    -0.477321486939    -0.929311358646     1.007825032230

  Running in c1 symmetry.

  Rotational constants: A =      0.07097  B =      0.01058  C =      0.00999 [cm^-1]
  Rotational constants: A =   2127.76578  B =    317.24971  C =    299.48593 [MHz]
  Nuclear repulsion =  851.350128317077861

  Charge       = 0
  Multiplicity = 1
  Electrons    = 102
  Nalpha       = 51
  Nbeta        = 51

  ==> Algorithm <==

  SCF Algorithm Type is DF.
  DIIS enabled.
  MOM disabled.
  Fractional occupation disabled.
  Guess Type is READ.
  Energy threshold   = 1.00e-10
  Density threshold  = 1.00e-10
  Integral threshold = 1.00e-12

  ==> Primary Basis <==

  Basis Set: CC-PVDZ
    Blend: CC-PVDZ
    Number of shells: 132
    Number of basis functions: 276
    Number of Cartesian functions: 290
    Spherical Harmonics?: true
    Max angular momentum: 2

   => Loading Basis Set <=

    Name: (CC-PVDZ AUX)
    Role: JKFIT
    Keyword: DF_BASIS_SCF
    atoms 1-12, 27            entry C          line   121 file /home/maxbuskirk/.conda/envs/psifour/share/psi4/basis/cc-pvdz-jkfit.gbs 
    atoms 13-14, 16-26, 28-30 entry H          line    51 file /home/maxbuskirk/.conda/envs/psifour/share/psi4/basis/cc-pvdz-jkfit.gbs 
    atoms 15                  entry O          line   221 file /home/maxbuskirk/.conda/envs/psifour/share/psi4/basis/cc-pvdz-jkfit.gbs 

   => Loading Basis Set <=

    Name: CC-PVDZ
    Role: ORBITAL
    Keyword: BASIS
    atoms 1-12, 27            entry C          line   138 file /home/maxbuskirk/.conda/envs/psifour/share/psi4/basis/cc-pvdz.gbs 
    atoms 13-14, 16-26, 28-30 entry H          line    22 file /home/maxbuskirk/.conda/envs/psifour/share/psi4/basis/cc-pvdz.gbs 
    atoms 15                  entry O          line   198 file /home/maxbuskirk/.conda/envs/psifour/share/psi4/basis/cc-pvdz.gbs 

  Reading orbitals from file /scratch1/maxbuskirk/rOMe.mol.2958237.180.npy, no projection.

  ==> Integral Setup <==

  DFHelper Memory: AOs need 0.663 GiB; user supplied 43.306 GiB. Using in-core AOs.

  ==> MemDFJK: Density-Fitted J/K Matrices <==

    J tasked:                   Yes
    K tasked:                   Yes
    wK tasked:                   No
    OpenMP threads:               1
    Memory [MiB]:             44345
    Algorithm:                 Core
    Schwarz Cutoff:           1E-12
    Mask sparsity (%):      16.7586
    Fitting Condition:        1E-10

   => Auxiliary Basis Set <=

  Basis Set: (CC-PVDZ AUX)
    Blend: CC-PVDZ-JKFIT
    Number of shells: 480
    Number of basis functions: 1348
    Number of Cartesian functions: 1534
    Spherical Harmonics?: true
    Max angular momentum: 3

  Minimum eigenvalue in the overlap matrix is 3.2473277331E-04.
  Reciprocal condition number of the overlap matrix is 4.7128632297E-05.
    Using symmetric orthogonalization.

  ==> Pre-Iterations <==

[...]
      28A     -0.708529    29A     -0.677090    30A     -0.658242  
      31A     -0.648123    32A     -0.626263    33A     -0.616600  
      34A     -0.592659    35A     -0.579914    36A     -0.572898  
      37A     -0.564930    38A     -0.560052    39A     -0.539971  
      40A     -0.517403    41A     -0.515331    42A     -0.479526  
      43A     -0.477047    44A     -0.476805    45A     -0.467873  
      46A     -0.464784    47A     -0.449480    48A     -0.402477  
      49A     -0.383295    50A     -0.333551    51A     -0.296407  

    Virtual:                                                              

      52A      0.130681    53A      0.150371    54A      0.178418  
      55A      0.187007    56A      0.202034    57A      0.209744  
      58A      0.214028    59A      0.234033    60A      0.237205  
      61A      0.250520    62A      0.252369    63A      0.259722  
      64A      0.264400    65A      0.266262    66A      0.273502  
      67A      0.288538    68A      0.301976    69A      0.304610  
      70A      0.311012    71A      0.336334    72A      0.350307  
      73A      0.360689    74A      0.375223    75A      0.393407  
      76A      0.411135    77A      0.415641    78A      0.445671  
      79A      0.466260    80A      0.478899    81A      0.499633  
      82A      0.515676    83A      0.523164    84A      0.533056  
      85A      0.588712    86A      0.618890    87A      0.627055  
      88A      0.632858    89A      0.640351    90A      0.656538  
      91A      0.665893    92A      0.676114    93A      0.682015  
      94A      0.691090    95A      0.706174    96A      0.714278  
      97A      0.718469    98A      0.727338    99A      0.736651  
     100A      0.741056   101A      0.748736   102A      0.749884  
     103A      0.758263   104A      0.783114   105A      0.792322  
     106A      0.812317   107A      0.819927   108A      0.829009  
     109A      0.839432   110A      0.846420   111A      0.856596  
     112A      0.863426   113A      0.868423   114A      0.870513  
     115A      0.876761   116A      0.887472   117A      0.891092  
     118A      0.895797   119A      0.900930   120A      0.905148  
     121A      0.907889   122A      0.910164   123A      0.915022  
     124A      0.919806   125A      0.929046   126A      0.939075  
     127A      0.948887   128A      0.953728   129A      0.955472  
     130A      0.972118   131A      0.973135   132A      0.991015  
     133A      1.011732   134A      1.040482   135A      1.054173  
     136A      1.126720   137A      1.132622   138A      1.136117  
     139A      1.155295   140A      1.165961   141A      1.173466  
     142A      1.186283   143A      1.197566   144A      1.231493  
     145A      1.246042   146A      1.261774   147A      1.266625  
     148A      1.298814   149A      1.301368   150A      1.332302  
     151A      1.337444   152A      1.347107   153A      1.364657  
     154A      1.380904   155A      1.390485   156A      1.430167  
     157A      1.436766   158A      1.457733   159A      1.472327  
     160A      1.481209   161A      1.482563   162A      1.502544  
     163A      1.519677   164A      1.574075   165A      1.576871  
     166A      1.606413   167A      1.615003   168A      1.651279  
     169A      1.656542   170A      1.670410   171A      1.692146  
     172A      1.717771   173A      1.732631   174A      1.740519  
     175A      1.757560   176A      1.773179   177A      1.785126  
     178A      1.793290   179A      1.810015   180A      1.819483  
     181A      1.831403   182A      1.842212   183A      1.846371  
     184A      1.861860   185A      1.875059   186A      1.875939  
     187A      1.887932   188A      1.899426   189A      1.904136  
     190A      1.914388   191A      1.920588   192A      1.925722  
     193A      1.927501   194A      1.938199   195A      1.946964  
     196A      1.959735   197A      1.963602   198A      1.971220  
     199A      1.974415   200A      1.989062   201A      1.993976  
     202A      2.004029   203A      2.016028   204A      2.035969  
     205A      2.037953   206A      2.045249   207A      2.048400  
     208A      2.058287   209A      2.073358   210A      2.079174  
     211A      2.086296   212A      2.110506   213A      2.120156  
     214A      2.129091   215A      2.153139   216A      2.166121  
     217A      2.174589   218A      2.191907   219A      2.216162  
     220A      2.231293   221A      2.243325   222A      2.255561  
     223A      2.259321   224A      2.268428   225A      2.283161  
     226A      2.292232   227A      2.297528   228A      2.331283  
     229A      2.344240   230A      2.353276   231A      2.360477  
     232A      2.378939   233A      2.391153   234A      2.422479  
     235A      2.442975   236A      2.452736   237A      2.455606  
     238A      2.468045   239A      2.470301   240A      2.482764  
     241A      2.538397   242A      2.556050   243A      2.564279  
     244A      2.587824   245A      2.601449   246A      2.608110  
     247A      2.634123   248A      2.680509   249A      2.724433  
     250A      2.727409   251A      2.750628   252A      2.768304  
     253A      2.777248   254A      2.779932   255A      2.785818  
     256A      2.797887   257A      2.826405   258A      2.846209  
     259A      2.862067   260A      2.908888   261A      2.916923  
     262A      2.950112   263A      2.986130   264A      2.999566  
     265A      3.006823   266A      3.056676   267A      3.077245  
     268A      3.142432   269A      3.235299   270A      3.254955  
     271A      3.258994   272A      3.407350   273A      3.426768  
     274A      3.620565   275A      3.793387   276A      4.001488  

    Final Occupation by Irrep:
              A 
    DOCC [    51 ]

  @DF-RHF Final Energy:  -576.45880688769978

   => Energetics <=

    Nuclear Repulsion Energy =            856.2454586982510136
    One-Electron Energy =               -2481.4556346712588493
    Two-Electron Energy =                1048.7513690853081698
    Total Energy =                       -576.4588068876996658

Computation Completed


Properties will be evaluated at   0.000000,   0.000000,   0.000000 [a0]

Properties computed using the SCF density matrix

  Nuclear Dipole Moment: [e a0]
     X:     7.1757      Y:     2.5766      Z:    -1.6872

  Electronic Dipole Moment: [e a0]
     X:    -7.3804      Y:    -2.3004      Z:     1.3813

  Dipole Moment: [e a0]
     X:    -0.2047      Y:     0.2763      Z:    -0.3059     Total:     0.4602

  Dipole Moment: [D]
     X:    -0.5203      Y:     0.7022      Z:    -0.7775     Total:     1.1697


*** tstop() called on skylm002.palmetto.clemson.edu at Fri Feb 11 07:18:35 2022
Module time:
	user time   =      19.07 seconds =       0.32 minutes
	system time =       0.76 seconds =       0.01 minutes
	total time  =         21 seconds =       0.35 minutes
Total time:
	user time   =  127289.24 seconds =    2121.49 minutes
	system time =   18719.78 seconds =     312.00 minutes
	total time  =     184976 seconds =    3082.93 minutes
 MINTS: Wrapper to libmints.
   by Justin Turney

   Calculation information:
      Number of threads:                 1
      Number of atoms:                  30
      Number of AO shells:             132
      Number of SO shells:             132
      Number of primitives:            388
      Number of atomic orbitals:       290
      Number of basis functions:       276

      Number of irreps:                  1
      Integral cutoff                 1.00e-12
      Number of functions per irrep: [ 276 ]

 OEINTS: Overlap, kinetic, potential, dipole, and quadrupole integrals
         stored in file 35.

      Computing two-electron integrals...done
      Computed 392433238 non-zero two-electron integrals.
        Stored in file 33.


*** tstart() called on skylm002.palmetto.clemson.edu
*** at Fri Feb 11 07:24:32 2022


	Wfn Parameters:
	--------------------
	Wavefunction         = CCSD
	Number of irreps     = 1
	Number of MOs        = 276
	Number of active MOs = 276
	AO-Basis             = NONE
	Semicanonical        = false
	Reference            = RHF
	Print Level          = 1

	IRREP	# MOs	# FZDC	# DOCC	# SOCC	# VIRT	# FZVR
	-----	-----	------	------	------	------	------
	 A	   276	    0	    51	    0	    225	    0
	Transforming integrals...
	IWL integrals will be deleted.
	(OO|OO)...
	Presorting SO-basis two-electron integrals.
	Sorting File: SO Ints (nn|nn) nbuckets = 1
	Constructing frozen core operators
	Starting first half-transformation.
	Sorting half-transformed integrals.
	First half integral transformation complete.
	Starting second half-transformation.
	Two-electron integral transformation complete.
	(OO|OV)...
	Starting second half-transformation.
	Two-electron integral transformation complete.
	(OO|VV)...
	Starting second half-transformation.
	Two-electron integral transformation complete.
	(OV|OO)...
	Starting first half-transformation.
	Sorting half-transformed integrals.
	First half integral transformation complete.
	Starting second half-transformation.
	Two-electron integral transformation complete.
	(OV|OV)...
	Starting second half-transformation.
	Two-electron integral transformation complete.
	(OV|VV)...
	Starting second half-transformation.
	Two-electron integral transformation complete.
	(VV|OO)...
	Starting first half-transformation.
	Sorting half-transformed integrals.
	First half integral transformation complete.
	Starting second half-transformation.
	Two-electron integral transformation complete.
	(VV|OV)...
	Starting second half-transformation.
	Two-electron integral transformation complete.
	(VV|VV)...
	Starting second half-transformation.
	Two-electron integral transformation complete.
	Frozen core energy     =      0.00000000000000

	Size of irrep 0 of <ab|cd> integrals:   2562.891 (MW) /  20503.125 (MB)
	Total:                                  2562.891 (MW) /  20503.125 (MB)

	Size of irrep 0 of <ia|bc> integrals:    580.922 (MW) /   4647.375 (MB)
	Total:                                   580.922 (MW) /   4647.375 (MB)

	Size of irrep 0 of tijab amplitudes:     131.676 (MW) /   1053.405 (MB)
	Total:                                   131.676 (MW) /   1053.405 (MB)

	Nuclear Rep. energy          =    856.24545869825101
	SCF energy                   =   -576.45880688769978
	One-electron energy          =  -2481.45563473876655
	Two-electron energy          =   1048.75061007021009
	Reference energy             =   -576.45956597030545

*** tstop() called on skylm002.palmetto.clemson.edu at Fri Feb 11 07:38:33 2022
Module time:
	user time   =     380.96 seconds =       6.35 minutes
	system time =     164.71 seconds =       2.75 minutes
	total time  =        841 seconds =      14.02 minutes
Total time:
	user time   =  127930.51 seconds =    2132.18 minutes
	system time =   18894.20 seconds =     314.90 minutes
	total time  =     186174 seconds =    3102.90 minutes
            **************************
            *                        *
            *        CCENERGY        *
            *                        *
            **************************

    Nuclear Rep. energy (wfn)     =  856.245458698251014
    SCF energy          (wfn)     = -576.458806887699780
    Reference energy    (file100) = -576.459565970305448

    Input parameters:
    -----------------
    Wave function   =     CCSD
    Reference wfn   =     RHF
    Brueckner       =     No
    Memory (Mbytes) =     62000.0
    Maxiter         =     50
    R_Convergence   =     1.0e-07
    E_Convergence   =     1.0e-08
    Restart         =     Yes
    DIIS            =     Yes
    AO Basis        =     NONE
    ABCD            =     NEW
    Cache Level     =     2
    Cache Type      =     LOW
    Print Level     =     1
    Num. of threads =     1
    # Amps to Print =     10
    Print MP2 Amps? =     No
    Analyze T2 Amps =     No
    Print Pair Ener =     No
    Local CC        =     No
    SCS-MP2         =     False
    SCSN-MP2        =     False
    SCS-CCSD        =     False

    Using old T1 amplitudes.
    Using old T2 amplitudes.

MP2 correlation energy -1.9813182843353880
                Solving CC Amplitude Equations
                ------------------------------
  Iter             Energy              RMS        T1Diag      D1Diag    New D1Diag    D2Diag
  ----     ---------------------    ---------   ----------  ----------  ----------   --------
     0        -1.691757517412352    0.000e+00    0.008736    0.040375    0.040375    0.186611
     1        -2.067365805667806    4.160e-01    0.008559    0.038518    0.038518    0.189216
     2        -2.068893936203430    7.062e-02    0.008735    0.040435    0.040435    0.185560
     3        -2.077741229563459    1.968e-02    0.008642    0.039424    0.039424    0.186560
     4        -2.078788136430429    6.286e-03    0.008710    0.040088    0.040088    0.186553
     5        -2.078853174191484    1.994e-03    0.008720    0.040067    0.040067    0.186584
     6        -2.078911411482948    7.197e-04    0.008726    0.040190    0.040190    0.186624
     7        -2.078939207633010    2.706e-04    0.008729    0.040234    0.040234    0.186640
     8        -2.078938520372941    1.100e-04    0.008730    0.040262    0.040262    0.186646
     9        -2.078936502654315    4.316e-05    0.008731    0.040275    0.040275    0.186649
    10        -2.078937157997617    1.712e-05    0.008731    0.040281    0.040281    0.186649
    11        -2.078936818541292    6.514e-06    0.008731    0.040284    0.040284    0.186649
    12        -2.078936653614700    2.380e-06    0.008731    0.040285    0.040285    0.186649
    13        -2.078936640239351    9.981e-07    0.008731    0.040285    0.040285    0.186649
    14        -2.078936620224065    3.903e-07    0.008731    0.040285    0.040285    0.186649
    15        -2.078936613058418    1.846e-07    0.008731    0.040285    0.040285    0.186649
    16        -2.078936612829818    7.538e-08    0.008731    0.040285    0.040285    0.186649

    Iterations converged.


    Largest TIA Amplitudes:
             46   1        -0.0188548041
             30   1         0.0166341045
             49  49        -0.0143501161
             39   1         0.0141471614
             49  47        -0.0110440644
             49   0        -0.0109947268
             49  93         0.0109161955
             30  13         0.0087306500
             42   1        -0.0083040991
             50  49        -0.0080955447

    Largest TIjAb Amplitudes:
     49  49   0   0        -0.0831682213
     50  50   1   1        -0.0711786969
     49  50   1   0        -0.0451006555
     50  49   0   1        -0.0451006555
     50  50   0   0        -0.0347629619
     49  49   1   1        -0.0287802693
     46  49   0  21         0.0161866896
     49  46  21   0         0.0161866896
     39  49   0  21         0.0158647236
     49  39  21   0         0.0158647236

    SCF energy       (wfn)                    = -576.458806887699780
    Reference energy (file100)                = -576.459565970305448

    Opposite-spin MP2 correlation energy      =   -1.466696938425791
    Same-spin MP2 correlation energy          =   -0.514621345909597
    Singles MP2 correlation energy            =   -0.000000000000000
    MP2 correlation energy                    =   -1.981318284335388
      * MP2 total energy                      = -578.440884254640878

    Opposite-spin CCSD correlation energy     =   -1.616293581348357
    Same-spin CCSD correlation energy         =   -0.462643031481461
    Singles CCSD correlation energy           =    0.000000000000000
    CCSD correlation energy                   =   -2.078936612829818
      * CCSD total energy                     = -578.538502583135255


			**************************
			*                        *
			*         CCHBAR         *
			*                        *
			**************************


			**************************
			*        CCLAMBDA        *
			**************************


	Nuclear Rep. energy (wfn)     =  856.245458698251014
	Reference           (wfn)     =                    0
	SCF energy          (wfn)     = -576.458806887699780
	Reference energy    (CC_INFO) = -576.459565970305448
	CCSD energy         (CC_INFO) =   -2.078936612829818
	Total CCSD energy   (CC_INFO) = -578.538502583135255

	Input parameters:
	-----------------
	Maxiter           =     50
	Convergence       = 1.0e-07
	Restart           =     No
	Cache Level       =     2
	Model III         =     No
	DIIS              =     Yes
	AO Basis          =     No
	ABCD              =     NEW
	Local CC          =     No
	Parameters for left-handed eigenvectors:
	    Irr   Root  Ground-State?    EOM energy        R0
	  1   0     0        Yes       0.0000000000   1.0000000000
	Labels for eigenvector 1:
	LIA 0 -1, Lia 0 -1, LIJAB 0 -1, Lijab 0 -1, LIjAb 0 -1, 2LIjAb - LIjbA 0 -1
	Symmetry of left-hand state: A
	Symmetry of left-hand eigenvector: A

	          Solving Lambda Equations
	          ------------------------
	Iter     PseudoEnergy or Norm         RMS  
	----     ---------------------     --------
	   0        -2.079132723645016    8.950e-08
	   1        -2.020053585924923    3.728e-02
	   2        -2.014333595548107    7.726e-03
	   3        -2.012895160672101    3.916e-03
	   4        -2.012488525533096    1.393e-03
	   5        -2.012580948677178    7.458e-04
	   6        -2.012599616074293    2.725e-04
	   7        -2.012588622438690    1.196e-04
	   8        -2.012590784456773    4.684e-05
	   9        -2.012592281010317    1.880e-05
	  10        -2.012592035486302    7.500e-06
	  11        -2.012592138281882    3.162e-06
	  12        -2.012591987816498    1.469e-06
	  13        -2.012591945994564    7.124e-07
	  14        -2.012591944176009    3.721e-07
	  15        -2.012591940407165    1.890e-07
	  16        -2.012591941077346    9.082e-08

	Largest LIA Amplitudes:
	         46   1        -0.0124379838
	         49  49        -0.0114527230
	         30   1         0.0109052332
	         39   1         0.0102607724
	         49  93         0.0087874966
	         49  47        -0.0087708846
	         49   0        -0.0083175404
	         50  49        -0.0061804969
	         30  13         0.0056891883
	         42   1        -0.0055287139

	Largest LIjAb Amplitudes:
	 49  49   0   0        -0.0783806379
	 50  50   1   1        -0.0666715246
	 49  50   1   0        -0.0427052560
	 50  49   0   1        -0.0427052560
	 50  50   0   0        -0.0307932853
	 49  49   1   1        -0.0258753455
	 46  49   0  21         0.0153165586
	 49  46  21   0         0.0153165586
	 39  49   0  21         0.0151367449
	 49  39  21   0         0.0151367449

	Iterations converged.

	Overlap <L|e^T> =        0.23367046804

			**************************
			*                        *
			*        CCDENSITY       *
			*                        *
			**************************


	Input parameters:
	-----------------
	Wave function    =   CCSD
	Reference wfn    =   RHF
	Dertype          = 1
	Tolerance        = 1.0e-14
	Cache Level      = 2
	AO Basis         = No
	OPDM Only        = No
	Relax OPDM       = Yes
	Compute Xi       = No
	Use Zeta         = No
	Xi connected     = Yes
	Compute NO       = No

	Nuclear Rep. energy (wfn)     =  856.245458698251014
	SCF energy          (wfn)     = -576.458806887699780
	Reference energy    (file100) = -576.459565970305448
	CCSD energy         (CC_INFO) =   -2.078936612829818
	Total CCSD energy   (CC_INFO) = -578.538502583135255
	Number of States = 1

	Ground?  State     EOM Energy       R0
	  Yes     0  A    0.0000000000   1.00000000

	Virial Theorem Data:
	--------------------
	Kinetic energy (ref)   =  575.480702894635783
	Kinetic energy (corr)  =    1.969601381738604
	Kinetic energy (total) =  577.450304276374368
	-V/T (ref)             =    2.001700948564819
	-V/T (corr)            =    2.055511349710113
	-V/T (total)           =    2.001884488238559
