
    -----------------------------------------------------------------------
          Psi4: An Open-Source Ab Initio Electronic Structure Package
                               Psi4 1.4 release

                         Git: Rev {HEAD} 9485035 


    D. G. A. Smith, L. A. Burns, A. C. Simmonett, R. M. Parrish,
    M. C. Schieber, R. Galvelis, P. Kraus, H. Kruse, R. Di Remigio,
    A. Alenaizan, A. M. James, S. Lehtola, J. P. Misiewicz, M. Scheurer,
    R. A. Shaw, J. B. Schriber, Y. Xie, Z. L. Glick, D. A. Sirianni,
    J. S. O'Brien, J. M. Waldrop, A. Kumar, E. G. Hohenstein,
    B. P. Pritchard, B. R. Brooks, H. F. Schaefer III, A. Yu. Sokolov,
    K. Patkowski, A. E. DePrince III, U. Bozkaya, R. A. King,
    F. A. Evangelista, J. M. Turney, T. D. Crawford, C. D. Sherrill,
    J. Chem. Phys. 152(18) 184108 (2020). https://doi.org/10.1063/5.0006002

                            Additional Code Authors
    E. T. Seidl, C. L. Janssen, E. F. Valeev, M. L. Leininger,
    J. F. Gonthier, R. M. Richard, H. R. McAlexander, M. Saitow, X. Wang,
    P. Verma, and M. H. Lechner

             Previous Authors, Complete List of Code Contributors,
                       and Citations for Specific Modules
    https://github.com/psi4/psi4/blob/master/codemeta.json
    https://github.com/psi4/psi4/graphs/contributors
    http://psicode.org/psi4manual/master/introduction.html#citing-psifour

    -----------------------------------------------------------------------


    Psi4 started on: Thursday, 30 December 2021 07:51PM

    Process ID: 1420263
    Host:       skystd01.palmetto.clemson.edu
    PSIDATADIR: /home/maxbuskirk/.conda/envs/psifour/share/psi4
    Memory:     500.0 MiB
    Threads:    1
    
  ==> Input File <==

--------------------------------------------------------------------------
memory 32 GB

molecule mol {
1 1
	    C    -0.1564660264   1.2926847351   0.6454518610
	    C     0.3017526054   0.0997667822  -0.0051421030
	    C    -0.5795296054  -1.0295843677  -0.0771519972
	    C    -1.8533311183  -0.9648379761   0.4674219871
	    C    -2.2909815234   0.2362519283   1.0771256122
	    C    -1.4425413392   1.3661451023   1.1605799684
	    C     1.5962233144   0.0442139656  -0.5607966962
	    C     2.6776151248   1.0493318255  -0.3457784210
	    C     3.9590118875   0.1979915693  -0.4671106786
	    C     3.6143626556  -0.7301079006  -1.6372697346
	    C     2.1161302276  -1.0616968224  -1.4396137645
	    C     1.3426700165  -1.1773598530  -2.7722138450
	    H     2.0072550631  -2.0101711431  -0.8770167991
	    H     4.2369120135  -1.6349221787  -1.6824688394
	    H     3.7411451971  -0.1888606451  -2.5909452642
	    H     4.1109316688  -0.3762687727   0.4620401783
	    H     4.8519159453   0.8155308940  -0.6376466762
	    H     2.5798977058   1.6474164772   0.5697066139
	    H     2.6349721865   1.7409536653  -1.2159118932
	    H     0.4944784584   2.1679792754   0.7056682090
	    H    -1.8059790365   2.2791208203   1.6378637149
	   CL    -3.8661438341   0.3180748655   1.7334750950
	    H    -2.5230205749  -1.8273992513   0.4356473432
	    H    -0.2367173287  -1.9648469013  -0.5247221709
	    H     0.2926934247  -1.4704428803  -2.6324458726
	    H     1.8367792792  -1.9342454831  -3.4004134591
	    H     1.3697550664  -0.2168807411  -3.3108102637	
}	


set scf_type df
set basis cc-pVDZ
set reference rhf


mol.update_geometry()
mol.symmetrize(1e-3)

e, wfn = frequencies('mp2', return_wfn=True)
oeprop(wfn, "MULLIKEN_CHARGES")
mol.print_out()
print_variables()
--------------------------------------------------------------------------

  Memory set to  29.802 GiB by Python driver.

Scratch directory: /tmp/
gradient() will perform analytic gradient computation.

*** tstart() called on skystd01.palmetto.clemson.edu
*** at Thu Dec 30 19:51:57 2021

   => Loading Basis Set <=

    Name: CC-PVDZ
    Role: ORBITAL
    Keyword: BASIS
    atoms 1-12         entry C          line   138 file /home/maxbuskirk/.conda/envs/psifour/share/psi4/basis/cc-pvdz.gbs 
    atoms 13-21, 23-27 entry H          line    22 file /home/maxbuskirk/.conda/envs/psifour/share/psi4/basis/cc-pvdz.gbs 
    atoms 22           entry CL         line   658 file /home/maxbuskirk/.conda/envs/psifour/share/psi4/basis/cc-pvdz.gbs 


         ---------------------------------------------------------
                                   SCF
               by Justin Turney, Rob Parrish, Andy Simmonett
                          and Daniel G. A. Smith
                              RHF Reference
                        1 Threads,  30517 MiB Core
         ---------------------------------------------------------

  ==> Geometry <==

    Molecular point group: c1
    Full point group: C1

    Geometry (in Angstrom), charge = 1, multiplicity = 1:

       Center              X                  Y                   Z               Mass       
    ------------   -----------------  -----------------  -----------------  -----------------
         C           -0.156466026402     1.292684735091     0.645451860993    12.000000000000
         C            0.301752605398     0.099766782191    -0.005142103007    12.000000000000
         C           -0.579529605402    -1.029584367709    -0.077151997207    12.000000000000
         C           -1.853331118302    -0.964837976109     0.467421987093    12.000000000000
         C           -2.290981523402     0.236251928291     1.077125612193    12.000000000000
         C           -1.442541339202     1.366145102291     1.160579968393    12.000000000000
         C            1.596223314398     0.044213965591    -0.560796696207    12.000000000000
         C            2.677615124798     1.049331825491    -0.345778421007    12.000000000000
         C            3.959011887498     0.197991569291    -0.467110678607    12.000000000000
         C            3.614362655598    -0.730107900609    -1.637269734607    12.000000000000
         C            2.116130227598    -1.061696822409    -1.439613764507    12.000000000000
         C            1.342670016498    -1.177359853009    -2.772213845007    12.000000000000
         H            2.007255063098    -2.010171143109    -0.877016799107     1.007825032230
         H            4.236912013498    -1.634922178709    -1.682468839407     1.007825032230
         H            3.741145197098    -0.188860645109    -2.590945264207     1.007825032230
         H            4.110931668798    -0.376268772709     0.462040178293     1.007825032230
         H            4.851915945298     0.815530893991    -0.637646676207     1.007825032230
         H            2.579897705798     1.647416477191     0.569706613893     1.007825032230
         H            2.634972186498     1.740953665291    -1.215911893207     1.007825032230
         H            0.494478458398     2.167979275391     0.705668208993     1.007825032230
         H           -1.805979036502     2.279120820291     1.637863714893     1.007825032230
         CL          -3.866143834102     0.318074865491     1.733475094993    34.968852682000
         H           -2.523020574902    -1.827399251309     0.435647343193     1.007825032230
         H           -0.236717328702    -1.964846901309    -0.524722170907     1.007825032230
         H            0.292693424698    -1.470442880309    -2.632445872607     1.007825032230
         H            1.836779279198    -1.934245483109    -3.400413459107     1.007825032230
         H            1.369755066398    -0.216880741109    -3.310810263707     1.007825032230

  Running in c1 symmetry.

  Rotational constants: A =      0.06566  B =      0.01063  C =      0.00955 [cm^-1]
  Rotational constants: A =   1968.56858  B =    318.55960  C =    286.39327 [MHz]
  Nuclear repulsion =  833.789422829355885

  Charge       = 1
  Multiplicity = 1
  Electrons    = 102
  Nalpha       = 51
  Nbeta        = 51

  ==> Algorithm <==

  SCF Algorithm Type is DF.
  DIIS enabled.
  MOM disabled.
  Fractional occupation disabled.
  Guess Type is SAD.
  Energy threshold   = 1.00e-10
  Density threshold  = 1.00e-10
  Integral threshold = 1.00e-12

  ==> Primary Basis <==

  Basis Set: CC-PVDZ
    Blend: CC-PVDZ
    Number of shells: 122
    Number of basis functions: 256
    Number of Cartesian functions: 269
    Spherical Harmonics?: true
    Max angular momentum: 2

   => Loading Basis Set <=

    Name: (CC-PVDZ AUX)
    Role: JKFIT
    Keyword: DF_BASIS_SCF
    atoms 1-12         entry C          line   121 file /home/maxbuskirk/.conda/envs/psifour/share/psi4/basis/cc-pvdz-jkfit.gbs 
    atoms 13-21, 23-27 entry H          line    51 file /home/maxbuskirk/.conda/envs/psifour/share/psi4/basis/cc-pvdz-jkfit.gbs 
    atoms 22           entry CL         line   667 file /home/maxbuskirk/.conda/envs/psifour/share/psi4/basis/cc-pvdz-jkfit.gbs 

  ==> Integral Setup <==

  DFHelper Memory: AOs need 0.573 GiB; user supplied 22.352 GiB. Using in-core AOs.

  ==> MemDFJK: Density-Fitted J/K Matrices <==

    J tasked:                   Yes
    K tasked:                   Yes
    wK tasked:                   No
    OpenMP threads:               1
    Memory [MiB]:             22888
    Algorithm:                 Core
    Schwarz Cutoff:           1E-12
    Mask sparsity (%):      11.5509
    Fitting Condition:        1E-10

   => Auxiliary Basis Set <=

  Basis Set: (CC-PVDZ AUX)
    Blend: CC-PVDZ-JKFIT
    Number of shells: 450
    Number of basis functions: 1274
    Number of Cartesian functions: 1452
    Spherical Harmonics?: true
    Max angular momentum: 3

  Minimum eigenvalue in the overlap matrix is 3.0820810219E-04.
  Reciprocal condition number of the overlap matrix is 4.5586210824E-05.
    Using symmetric orthogonalization.

  ==> Pre-Iterations <==

  SCF Guess: Superposition of Atomic Densities via on-the-fly atomic UHF (no occupation information).

   -------------------------
    Irrep   Nso     Nmo    
   -------------------------
     A        256     256 
   -------------------------
    Total     256     256
   -------------------------

  ==> Iterations <==

                           Total Energy        Delta E     RMS |[F,P]|

   @DF-RHF iter SAD:  -921.75193379686198   -9.21752e+02   0.00000e+00 
   @DF-RHF iter   1:  -921.63344195505147    1.18492e-01   2.17119e-03 DIIS
   @DF-RHF iter   2:  -921.83331772250938   -1.99876e-01   8.98999e-04 DIIS
   @DF-RHF iter   3:  -921.86361228609235   -3.02946e-02   2.82057e-04 DIIS
   @DF-RHF iter   4:  -921.86817199042628   -4.55970e-03   9.58661e-05 DIIS
   @DF-RHF iter   5:  -921.86858800893287   -4.16019e-04   2.99407e-05 DIIS
   @DF-RHF iter   6:  -921.86866952247874   -8.15135e-05   1.18255e-05 DIIS
   @DF-RHF iter   7:  -921.86868301001789   -1.34875e-05   4.64538e-06 DIIS
   @DF-RHF iter   8:  -921.86868557026992   -2.56025e-06   1.72145e-06 DIIS
   @DF-RHF iter   9:  -921.86868606157782   -4.91308e-07   8.85811e-07 DIIS
   @DF-RHF iter  10:  -921.86868618203607   -1.20458e-07   3.72064e-07 DIIS
   @DF-RHF iter  11:  -921.86868620900589   -2.69698e-08   1.46382e-07 DIIS
   @DF-RHF iter  12:  -921.86868621188773   -2.88185e-09   5.20287e-08 DIIS
   @DF-RHF iter  13:  -921.86868621225324   -3.65503e-10   2.31980e-08 DIIS
   @DF-RHF iter  14:  -921.86868621231918   -6.59384e-11   5.85032e-09 DIIS
   @DF-RHF iter  15:  -921.86868621232225   -3.06954e-12   2.03981e-09 DIIS
   @DF-RHF iter  16:  -921.86868621232429   -2.04636e-12   6.40625e-10 DIIS
   @DF-RHF iter  17:  -921.86868621232361    6.82121e-13   3.22345e-10 DIIS
   @DF-RHF iter  18:  -921.86868621232372   -1.13687e-13   1.27485e-10 DIIS
   @DF-RHF iter  19:  -921.86868621232304    6.82121e-13   4.48388e-11 DIIS
  Energy and wave function converged.


  ==> Post-Iterations <==

    Orbital Energies [Eh]
    ---------------------

    Doubly Occupied:                                                      

       1A   -104.983960     2A    -11.498092     3A    -11.495536  
       4A    -11.443774     5A    -11.443272     6A    -11.425739  
       7A    -11.411917     8A    -11.411429     9A    -11.407162  
      10A    -11.406709    11A    -11.379620    12A    -11.377954  
      13A    -11.373747    14A    -10.711054    15A     -8.178641  
      16A     -8.174945    17A     -8.174757    18A     -1.360917  
      19A     -1.330426    20A     -1.277941    21A     -1.202121  
      22A     -1.190575    23A     -1.176732    24A     -1.103318  
      25A     -1.053005    26A     -1.011051    27A     -0.994998  
      28A     -0.944302    29A     -0.907018    30A     -0.861129  
      31A     -0.824779    32A     -0.815320    33A     -0.795352  
      34A     -0.776205    35A     -0.769623    36A     -0.741132  
      37A     -0.723390    38A     -0.708195    39A     -0.701451  
      40A     -0.692962    41A     -0.686403    42A     -0.669591  
      43A     -0.662557    44A     -0.637361    45A     -0.630950  
      46A     -0.619963    47A     -0.614352    48A     -0.611012  
      49A     -0.596148    50A     -0.513766    51A     -0.503167  

    Virtual:                                                              

      52A     -0.155555    53A     -0.033294    54A      0.000547  
      55A      0.028906    56A      0.050183    57A      0.059169  
      58A      0.069264    59A      0.090351    60A      0.098058  
      61A      0.112875    62A      0.118374    63A      0.126578  
      64A      0.129806    65A      0.140893    66A      0.151108  
      67A      0.161757    68A      0.165746    69A      0.175939  
      70A      0.188771    71A      0.190699    72A      0.213711  
      73A      0.229826    74A      0.245872    75A      0.251596  
      76A      0.269934    77A      0.286425    78A      0.314676  
      79A      0.328358    80A      0.348169    81A      0.357251  
      82A      0.435738    83A      0.441950    84A      0.449588  
      85A      0.463779    86A      0.469817    87A      0.470604  
      88A      0.495569    89A      0.513688    90A      0.522345  
      91A      0.524262    92A      0.537134    93A      0.552679  
      94A      0.555031    95A      0.568526    96A      0.575761  
      97A      0.576219    98A      0.577373    99A      0.589606  
     100A      0.604520   101A      0.616820   102A      0.642179  
     103A      0.648838   104A      0.650615   105A      0.672076  
     106A      0.681595   107A      0.691777   108A      0.697531  
     109A      0.708297   110A      0.713771   111A      0.716822  
     112A      0.731675   113A      0.733665   114A      0.744861  
     115A      0.746904   116A      0.753771   117A      0.757026  
     118A      0.765152   119A      0.767144   120A      0.771276  
     121A      0.779651   122A      0.783457   123A      0.786578  
     124A      0.797096   125A      0.801407   126A      0.819150  
     127A      0.828338   128A      0.832570   129A      0.839954  
     130A      0.855390   131A      0.879039   132A      0.897161  
     133A      0.915323   134A      0.927586   135A      0.962188  
     136A      0.975223   137A      0.978554   138A      0.997173  
     139A      1.011953   140A      1.019269   141A      1.039963  
     142A      1.055066   143A      1.065282   144A      1.076994  
     145A      1.105732   146A      1.116235   147A      1.127009  
     148A      1.160362   149A      1.182884   150A      1.199848  
     151A      1.215810   152A      1.258173   153A      1.283545  
     154A      1.306267   155A      1.314840   156A      1.324840  
     157A      1.326490   158A      1.331698   159A      1.366252  
     160A      1.393390   161A      1.406236   162A      1.425477  
     163A      1.447991   164A      1.470911   165A      1.510586  
     166A      1.529068   167A      1.544173   168A      1.564777  
     169A      1.574954   170A      1.594057   171A      1.600542  
     172A      1.608150   173A      1.629139   174A      1.635430  
     175A      1.650401   176A      1.674318   177A      1.691839  
     178A      1.694277   179A      1.700632   180A      1.708642  
     181A      1.713730   182A      1.723530   183A      1.746611  
     184A      1.751202   185A      1.767658   186A      1.779977  
     187A      1.782667   188A      1.791879   189A      1.792839  
     190A      1.806683   191A      1.819743   192A      1.823132  
     193A      1.832294   194A      1.850739   195A      1.864931  
     196A      1.867063   197A      1.879506   198A      1.888259  
     199A      1.902553   200A      1.913945   201A      1.920372  
     202A      1.941944   203A      1.945157   204A      1.959573  
     205A      1.964662   206A      1.980195   207A      2.010162  
     208A      2.014553   209A      2.030353   210A      2.051795  
     211A      2.055080   212A      2.069452   213A      2.075757  
     214A      2.084953   215A      2.089835   216A      2.125619  
     217A      2.158187   218A      2.189696   219A      2.202284  
     220A      2.209670   221A      2.224196   222A      2.255299  
     223A      2.272533   224A      2.283955   225A      2.290423  
     226A      2.321409   227A      2.325508   228A      2.350214  
     229A      2.353989   230A      2.378178   231A      2.409126  
     232A      2.434566   233A      2.464160   234A      2.495883  
     235A      2.507166   236A      2.527015   237A      2.556644  
     238A      2.585082   239A      2.603541   240A      2.617079  
     241A      2.624233   242A      2.687920   243A      2.696921  
     244A      2.711805   245A      2.737865   246A      2.761969  
     247A      2.772727   248A      2.790582   249A      2.835446  
     250A      2.856388   251A      2.864631   252A      2.897250  
     253A      2.950966   254A      3.012091   255A      3.110923  
     256A      3.617522  

    Final Occupation by Irrep:
              A 
    DOCC [    51 ]

  @DF-RHF Final Energy:  -921.86868621232304

   => Energetics <=

    Nuclear Repulsion Energy =            833.7894228293558854
    One-Electron Energy =               -2899.3051778830049443
    Two-Electron Energy =                1143.6470688413262451
    Total Energy =                       -921.8686862123229275

Computation Completed


Properties will be evaluated at   0.000000,   0.000000,   0.000000 [a0]

Properties computed using the SCF density matrix

  Nuclear Dipole Moment: [e a0]
     X:    25.6551      Y:    -3.0783      Z:   -13.8316

  Electronic Dipole Moment: [e a0]
     X:   -24.0485      Y:     3.1044      Z:    13.2183

  Dipole Moment: [e a0]
     X:     1.6066      Y:     0.0261      Z:    -0.6133     Total:     1.7199

  Dipole Moment: [D]
     X:     4.0836      Y:     0.0663      Z:    -1.5588     Total:     4.3715


*** tstop() called on skystd01.palmetto.clemson.edu at Thu Dec 30 19:52:17 2021
Module time:
	user time   =      19.02 seconds =       0.32 minutes
	system time =       0.81 seconds =       0.01 minutes
	total time  =         20 seconds =       0.33 minutes
Total time:
	user time   =      19.02 seconds =       0.32 minutes
	system time =       0.81 seconds =       0.01 minutes
	total time  =         20 seconds =       0.33 minutes

*** tstart() called on skystd01.palmetto.clemson.edu
*** at Thu Dec 30 19:52:17 2021


  //>>>>>>>>>>>>>>>>>>>>>>>>>>>>>>>>>>>//
  //               DFMP2               //
  //<<<<<<<<<<<<<<<<<<<<<<<<<<<<<<<<<<<//

   => Loading Basis Set <=

    Name: (CC-PVDZ AUX)
    Role: RIFIT
    Keyword: DF_BASIS_MP2
    atoms 1-12         entry C          line   159 file /home/maxbuskirk/.conda/envs/psifour/share/psi4/basis/cc-pvdz-ri.gbs 
    atoms 13-21, 23-27 entry H          line    19 file /home/maxbuskirk/.conda/envs/psifour/share/psi4/basis/cc-pvdz-ri.gbs 
    atoms 22           entry CL         line   649 file /home/maxbuskirk/.conda/envs/psifour/share/psi4/basis/cc-pvdz-ri.gbs 

	 --------------------------------------------------------
	                          DF-MP2                         
	      2nd-Order Density-Fitted Moller-Plesset Theory     
	              RMP2 Wavefunction,   1 Threads             
	                                                         
	        Rob Parrish, Justin Turney, Andy Simmonett,      
	           Ed Hohenstein, and C. David Sherrill          
	 --------------------------------------------------------

   => Auxiliary Basis Set <=

  Basis Set: (CC-PVDZ AUX)
    Blend: CC-PVDZ-RI
    Number of shells: 324
    Number of basis functions: 944
    Number of Cartesian functions: 1092
    Spherical Harmonics?: true
    Max angular momentum: 3

	 --------------------------------------------------------
	                 NBF =   256, NAUX =   944
	 --------------------------------------------------------
	   CLASS    FOCC     OCC    AOCC    AVIR     VIR    FVIR
	   PAIRS       0      51      51     205     205       0
	 --------------------------------------------------------

  DFHelper Memory: AOs need 0.573 GiB; user supplied 22.352 GiB. Using in-core AOs.


         ------------------------------------------------------------
                                     CPHF                           
                                  Rob Parrish                       
         ------------------------------------------------------------

  ==> Geometry <==

    Molecular point group: c1
    Full point group: C1

    Geometry (in Angstrom), charge = 1, multiplicity = 1:

       Center              X                  Y                   Z               Mass       
    ------------   -----------------  -----------------  -----------------  -----------------
         C           -0.156466026402     1.292684735091     0.645451860993    12.000000000000
         C            0.301752605398     0.099766782191    -0.005142103007    12.000000000000
         C           -0.579529605402    -1.029584367709    -0.077151997207    12.000000000000
         C           -1.853331118302    -0.964837976109     0.467421987093    12.000000000000
         C           -2.290981523402     0.236251928291     1.077125612193    12.000000000000
         C           -1.442541339202     1.366145102291     1.160579968393    12.000000000000
         C            1.596223314398     0.044213965591    -0.560796696207    12.000000000000
         C            2.677615124798     1.049331825491    -0.345778421007    12.000000000000
         C            3.959011887498     0.197991569291    -0.467110678607    12.000000000000
         C            3.614362655598    -0.730107900609    -1.637269734607    12.000000000000
         C            2.116130227598    -1.061696822409    -1.439613764507    12.000000000000
         C            1.342670016498    -1.177359853009    -2.772213845007    12.000000000000
         H            2.007255063098    -2.010171143109    -0.877016799107     1.007825032230
         H            4.236912013498    -1.634922178709    -1.682468839407     1.007825032230
         H            3.741145197098    -0.188860645109    -2.590945264207     1.007825032230
         H            4.110931668798    -0.376268772709     0.462040178293     1.007825032230
         H            4.851915945298     0.815530893991    -0.637646676207     1.007825032230
         H            2.579897705798     1.647416477191     0.569706613893     1.007825032230
         H            2.634972186498     1.740953665291    -1.215911893207     1.007825032230
         H            0.494478458398     2.167979275391     0.705668208993     1.007825032230
         H           -1.805979036502     2.279120820291     1.637863714893     1.007825032230
         CL          -3.866143834102     0.318074865491     1.733475094993    34.968852682000
         H           -2.523020574902    -1.827399251309     0.435647343193     1.007825032230
         H           -0.236717328702    -1.964846901309    -0.524722170907     1.007825032230
         H            0.292693424698    -1.470442880309    -2.632445872607     1.007825032230
         H            1.836779279198    -1.934245483109    -3.400413459107     1.007825032230
         H            1.369755066398    -0.216880741109    -3.310810263707     1.007825032230

  Nuclear repulsion =  833.789422829355885
  Reference energy  = -921.868686212323041

  ==> Basis Set <==

  Basis Set: CC-PVDZ
    Blend: CC-PVDZ
    Number of shells: 122
    Number of basis functions: 256
    Number of Cartesian functions: 269
    Spherical Harmonics?: true
    Max angular momentum: 2

  ==> CGRSolver (by Rob Parrish) <==

   Number of roots    =         1
   Preconditioning    =    JACOBI
   Convergence cutoff =     1E-06
   Maximum iterations =       100

  ==> CPHFRHamiltonian (by Rob Parrish) <== 

  ==> MemDFJK: Density-Fitted J/K Matrices <==

    J tasked:                   Yes
    K tasked:                   Yes
    wK tasked:                   No
    OpenMP threads:               1
    Memory [MiB]:             22888
    Algorithm:                 Core
    Schwarz Cutoff:           1E-12
    Mask sparsity (%):      11.5509
    Fitting Condition:        1E-10

   => Auxiliary Basis Set <=

  Basis Set: (CC-PVDZ AUX)
    Blend: CC-PVDZ-JKFIT
    Number of shells: 450
    Number of basis functions: 1274
    Number of Cartesian functions: 1452
    Spherical Harmonics?: true
    Max angular momentum: 3

  ==> CPHF Iterations <==

  => Iterations <=

             Iter  Converged  Remaining    Residual
  CGR           1          0          1   1.355E-01
  CGR           2          0          1   4.618E-02
  CGR           3          0          1   2.067E-02
  CGR           4          0          1   6.727E-03
  CGR           5          0          1   3.993E-03
  CGR           6          0          1   1.571E-03
  CGR           7          0          1   6.335E-04
  CGR           8          0          1   2.432E-04
  CGR           9          0          1   8.757E-05
  CGR          10          0          1   2.341E-05
  CGR          11          0          1   7.421E-06
  CGR          12          0          1   2.432E-06
  CGR          13          1          0   9.576E-07

    CGRSolver converged.

  ==> DFCorrGrad: Density-Fitted Correlated Gradients <==

    OpenMP threads:              1
    Integrals threads:           1
    Memory [GiB]:           22.352
    Schwarz Cutoff:          0E+00
    Fitting Condition:       1E-10

   => Auxiliary Basis Set <=

  Basis Set: (CC-PVDZ AUX)
    Blend: CC-PVDZ-JKFIT
    Number of shells: 450
    Number of basis functions: 1274
    Number of Cartesian functions: 1452
    Spherical Harmonics?: true
    Max angular momentum: 3

	-----------------------------------------------------------
	 ==================> DF-MP2 Energies <==================== 
	-----------------------------------------------------------
	 Reference Energy          =    -921.8686862123230412 [Eh]
	 Singles Energy            =      -0.0000000000000000 [Eh]
	 Same-Spin Energy          =      -0.4600377053178208 [Eh]
	 Opposite-Spin Energy      =      -1.3072232271835733 [Eh]
	 Correlation Energy        =      -1.7672609325013942 [Eh]
	 Total Energy              =    -923.6359471448243994 [Eh]
	-----------------------------------------------------------
	 ================> DF-SCS-MP2 Energies <================== 
	-----------------------------------------------------------
	 SCS Same-Spin Scale       =       0.3333333333333333 [-]
	 SCS Opposite-Spin Scale   =       1.2000000000000000 [-]
	 SCS Same-Spin Energy      =      -0.1533459017726069 [Eh]
	 SCS Opposite-Spin Energy  =      -1.5686678726202878 [Eh]
	 SCS Correlation Energy    =      -1.7220137743928947 [Eh]
	 SCS Total Energy          =    -923.5906999867158902 [Eh]
	-----------------------------------------------------------


  -Total Gradient:
     Atom            X                  Y                   Z
    ------   -----------------  -----------------  -----------------
       1       -0.000005505549     0.000008777628    -0.000014901166
       2        0.000016415140    -0.000004583711     0.000018268870
       3        0.000000035016    -0.000007364912     0.000021031840
       4        0.000002063166    -0.000004804661    -0.000002909197
       5       -0.000001217448     0.000001067755     0.000001759516
       6        0.000000803403     0.000001892603    -0.000001308013
       7        0.000013978715     0.000006650149     0.000012627442
       8       -0.000004791587     0.000009698181    -0.000002903662
       9       -0.000002070035    -0.000006883339     0.000004471017
      10       -0.000003223524    -0.000005958003     0.000004169808
      11       -0.000030351951     0.000013310163     0.000008297398
      12        0.000027081597     0.000006764455    -0.000013240625
      13       -0.000006612573    -0.000005291208    -0.000004813742
      14       -0.000000055149    -0.000000930986    -0.000001720368
      15       -0.000001726133     0.000000051540     0.000001418517
      16        0.000001612579     0.000002021832     0.000001936081
      17       -0.000001171630    -0.000000069997    -0.000002038777
      18       -0.000001815428    -0.000005550464     0.000002645410
      19        0.000002568721     0.000004742913     0.000003012093
      20       -0.000000719481     0.000000669986     0.000000349564
      21       -0.000000088896     0.000000399935    -0.000000962698
      22        0.000001591437     0.000000033080    -0.000000198547
      23       -0.000000339007     0.000000015634     0.000000062139
      24        0.000001789038    -0.000001200533    -0.000003677932
      25       -0.000002109645    -0.000010719397     0.000000178720
      26       -0.000004888116    -0.000003116208    -0.000009773171
      27       -0.000001252699     0.000000377580    -0.000021780508


*** tstop() called on skystd01.palmetto.clemson.edu at Thu Dec 30 19:53:45 2021
Module time:
	user time   =      83.35 seconds =       1.39 minutes
	system time =       3.74 seconds =       0.06 minutes
	total time  =         88 seconds =       1.47 minutes
Total time:
	user time   =     102.37 seconds =       1.71 minutes
	system time =       4.55 seconds =       0.08 minutes
	total time  =        108 seconds =       1.80 minutes

  Based on options and gradient (rms=8.03E-06), recommend projecting translations and projecting rotations.
hessian() will perform frequency computation by finite difference of analytic gradients.

         ----------------------------------------------------------
                                   FINDIF
                     R. A. King and Jonathon Misiewicz
         ---------------------------------------------------------

  Using finite-differences of gradients to determine vibrational frequencies and 
  normal modes. Resulting frequencies are only valid at stationary points.
    Generating geometries for use with 3-point formula.
    Displacement size will be 5.00e-03.
    Number of atoms is 27.
    Number of irreps is 1.
    Number of SALCs is 75.
    Translations projected? 1. Rotations projected? 1.
    Index of SALCs per irrep:
     1 :  0  1  2  3  4  5  6  7  8  9  10  11  12  13  14  15  16  17  18  19  20  21  22  23  24  25  26  27  28  29  30  31  32  33  34  35  36  37  38  39  40  41  42  43  44  45  46  47  48  49  50  51  52  53  54  55  56  57  58  59  60  61  62  63  64  65  66  67  68  69  70  71  72  73  74 
    Number of SALCs per irrep:
     Irrep 1: 75
    Number of geometries (including reference) is 151.
    Number of displacements per irrep:
      Irrep 1: 150

  //>>>>>>>>>>>>>>>>>>>>>>>>>>>>>>>>>>>//
  //   Loading displacement 1 of 151   //
  //<<<<<<<<<<<<<<<<<<<<<<<<<<<<<<<<<<<//

Scratch directory: /tmp/
gradient() will perform analytic gradient computation.

*** tstart() called on skystd01.palmetto.clemson.edu
*** at Thu Dec 30 19:53:45 2021

   => Loading Basis Set <=

    Name: CC-PVDZ
    Role: ORBITAL
    Keyword: BASIS
    atoms 1-12         entry C          line   138 file /home/maxbuskirk/.conda/envs/psifour/share/psi4/basis/cc-pvdz.gbs 
    atoms 13-21, 23-27 entry H          line    22 file /home/maxbuskirk/.conda/envs/psifour/share/psi4/basis/cc-pvdz.gbs 
    atoms 22           entry CL         line   658 file /home/maxbuskirk/.conda/envs/psifour/share/psi4/basis/cc-pvdz.gbs 


         ---------------------------------------------------------
                                   SCF
               by Justin Turney, Rob Parrish, Andy Simmonett
                          and Daniel G. A. Smith
                              RHF Reference
                        1 Threads,  30517 MiB Core
         ---------------------------------------------------------

  ==> Geometry <==

    Molecular point group: c1
    Full point group: C1

    Geometry (in Angstrom), charge = 1, multiplicity = 1:

       Center              X                  Y                   Z               Mass       
    ------------   -----------------  -----------------  -----------------  -----------------
         C           -0.156466026402     1.292684735091     0.645451860993    12.000000000000
         C            0.301752605398     0.099766782191    -0.005142103007    12.000000000000
         C           -0.579529605402    -1.029584367709    -0.077151997207    12.000000000000
         C           -1.853331118302    -0.964837976109     0.467421987093    12.000000000000
         C           -2.290981523402     0.236251928291     1.077125612193    12.000000000000
         C           -1.442541339202     1.366145102291     1.160579968393    12.000000000000
         C            1.596223314398     0.044213965591    -0.560796696207    12.000000000000
         C            2.677615124798     1.049331825491    -0.345778421007    12.000000000000
         C            3.959011887498     0.197991569291    -0.467110678607    12.000000000000
         C            3.614362655598    -0.730107900609    -1.637269734607    12.000000000000
         C            2.116130227598    -1.061696822409    -1.439613764507    12.000000000000
         C            1.342670016498    -1.177359853009    -2.772213845007    12.000000000000
         H            2.007255063098    -2.010171143109    -0.877016799107     1.007825032230
         H            4.236912013498    -1.634922178709    -1.682468839407     1.007825032230
         H            3.741145197098    -0.188860645109    -2.590945264207     1.007825032230
         H            4.110931668798    -0.376268772709     0.462040178293     1.007825032230
         H            4.851915945298     0.815530893991    -0.637646676207     1.007825032230
         H            2.579897705798     1.647416477191     0.569706613893     1.007825032230
         H            2.634972186498     1.740953665291    -1.215911893207     1.007825032230
         H            0.494478458398     2.167979275391     0.705668208993     1.007825032230
         H           -1.805979036502     2.279120820291     1.637863714893     1.007825032230
         CL          -3.866143834102     0.318074865491     1.733475094993    34.968852682000
         H           -2.523020574902    -1.827399251309     0.435647343193     1.007825032230
         H           -0.236717328702    -1.964846901309    -0.524722170907     1.007825032230
         H            0.292693424698    -1.470442880309    -2.632445872607     1.007825032230
         H            1.836779279198    -1.934245483109    -3.400413459107     1.007825032230
         H            1.369755066398    -0.216880741109    -3.310810263707     1.007825032230

  Running in c1 symmetry.

  Rotational constants: A =      0.06566  B =      0.01063  C =      0.00955 [cm^-1]
  Rotational constants: A =   1968.56858  B =    318.55960  C =    286.39327 [MHz]
  Nuclear repulsion =  833.789422829355885

  Charge       = 1
  Multiplicity = 1
  Electrons    = 102
  Nalpha       = 51
  Nbeta        = 51

  ==> Algorithm <==

  SCF Algorithm Type is DF.
  DIIS enabled.
  MOM disabled.
  Fractional occupation disabled.
  Guess Type is SAD.
  Energy threshold   = 1.00e-10
  Density threshold  = 1.00e-10
  Integral threshold = 1.00e-12

  ==> Primary Basis <==

  Basis Set: CC-PVDZ
    Blend: CC-PVDZ
    Number of shells: 122
    Number of basis functions: 256
    Number of Cartesian functions: 269
    Spherical Harmonics?: true
    Max angular momentum: 2

   => Loading Basis Set <=

    Name: (CC-PVDZ AUX)
    Role: JKFIT
    Keyword: DF_BASIS_SCF
    atoms 1-12         entry C          line   121 file /home/maxbuskirk/.conda/envs/psifour/share/psi4/basis/cc-pvdz-jkfit.gbs 
    atoms 13-21, 23-27 entry H          line    51 file /home/maxbuskirk/.conda/envs/psifour/share/psi4/basis/cc-pvdz-jkfit.gbs 
    atoms 22           entry CL         line   667 file /home/maxbuskirk/.conda/envs/psifour/share/psi4/basis/cc-pvdz-jkfit.gbs 

  ==> Integral Setup <==

  DFHelper Memory: AOs need 0.573 GiB; user supplied 22.352 GiB. Using in-core AOs.

  ==> MemDFJK: Density-Fitted J/K Matrices <==

    J tasked:                   Yes
    K tasked:                   Yes
    wK tasked:                   No
    OpenMP threads:               1
    Memory [MiB]:             22888
    Algorithm:                 Core
    Schwarz Cutoff:           1E-12
    Mask sparsity (%):      11.5509
    Fitting Condition:        1E-10

   => Auxiliary Basis Set <=

  Basis Set: (CC-PVDZ AUX)
    Blend: CC-PVDZ-JKFIT
    Number of shells: 450
    Number of basis functions: 1274
    Number of Cartesian functions: 1452
    Spherical Harmonics?: true
    Max angular momentum: 3

  Minimum eigenvalue in the overlap matrix is 3.0820810219E-04.
  Reciprocal condition number of the overlap matrix is 4.5586210824E-05.
    Using symmetric orthogonalization.

  ==> Pre-Iterations <==

  SCF Guess: Superposition of Atomic Densities via on-the-fly atomic UHF (no occupation information).

   -------------------------
    Irrep   Nso     Nmo    
   -------------------------
     A        256     256 
   -------------------------
    Total     256     256
   -------------------------

  ==> Iterations <==

                           Total Energy        Delta E     RMS |[F,P]|

   @DF-RHF iter SAD:  -921.75193379670054   -9.21752e+02   0.00000e+00 
   @DF-RHF iter   1:  -921.63344195489401    1.18492e-01   2.17119e-03 DIIS
   @DF-RHF iter   2:  -921.83331772235556   -1.99876e-01   8.98999e-04 DIIS
   @DF-RHF iter   3:  -921.86361228594092   -3.02946e-02   2.82057e-04 DIIS
   @DF-RHF iter   4:  -921.86817199027746   -4.55970e-03   9.58661e-05 DIIS
   @DF-RHF iter   5:  -921.86858800877951   -4.16019e-04   2.99407e-05 DIIS
   @DF-RHF iter   6:  -921.86866952232890   -8.15135e-05   1.18255e-05 DIIS
   @DF-RHF iter   7:  -921.86868300986816   -1.34875e-05   4.64538e-06 DIIS
   @DF-RHF iter   8:  -921.86868557012019   -2.56025e-06   1.72145e-06 DIIS
   @DF-RHF iter   9:  -921.86868606142752   -4.91307e-07   8.85811e-07 DIIS
   @DF-RHF iter  10:  -921.86868618188339   -1.20456e-07   3.72064e-07 DIIS
   @DF-RHF iter  11:  -921.86868620885457   -2.69712e-08   1.46382e-07 DIIS
   @DF-RHF iter  12:  -921.86868621173539   -2.88082e-09   5.20287e-08 DIIS
   @DF-RHF iter  13:  -921.86868621210124   -3.65844e-10   2.31980e-08 DIIS
   @DF-RHF iter  14:  -921.86868621216911   -6.78710e-11   5.85032e-09 DIIS
   @DF-RHF iter  15:  -921.86868621216991   -7.95808e-13   2.03981e-09 DIIS
   @DF-RHF iter  16:  -921.86868621217252   -2.61480e-12   6.40625e-10 DIIS
   @DF-RHF iter  17:  -921.86868621217275   -2.27374e-13   3.22345e-10 DIIS
   @DF-RHF iter  18:  -921.86868621217309   -3.41061e-13   1.27485e-10 DIIS
   @DF-RHF iter  19:  -921.86868621217263    4.54747e-13   4.48387e-11 DIIS
  Energy and wave function converged.


  ==> Post-Iterations <==

    Orbital Energies [Eh]
    ---------------------

    Doubly Occupied:                                                      

       1A   -104.983960     2A    -11.498092     3A    -11.495536  
       4A    -11.443774     5A    -11.443272     6A    -11.425739  
       7A    -11.411917     8A    -11.411429     9A    -11.407162  
      10A    -11.406709    11A    -11.379620    12A    -11.377954  
      13A    -11.373747    14A    -10.711054    15A     -8.178641  
      16A     -8.174945    17A     -8.174757    18A     -1.360917  
      19A     -1.330426    20A     -1.277941    21A     -1.202121  
      22A     -1.190575    23A     -1.176732    24A     -1.103318  
      25A     -1.053005    26A     -1.011051    27A     -0.994998  
      28A     -0.944302    29A     -0.907018    30A     -0.861129  
      31A     -0.824779    32A     -0.815320    33A     -0.795352  
      34A     -0.776205    35A     -0.769623    36A     -0.741132  
      37A     -0.723390    38A     -0.708195    39A     -0.701451  
      40A     -0.692962    41A     -0.686403    42A     -0.669591  
      43A     -0.662557    44A     -0.637361    45A     -0.630950  
      46A     -0.619963    47A     -0.614352    48A     -0.611012  
      49A     -0.596148    50A     -0.513766    51A     -0.503167  

    Virtual:                                                              

      52A     -0.155555    53A     -0.033294    54A      0.000547  
      55A      0.028906    56A      0.050183    57A      0.059169  
      58A      0.069264    59A      0.090351    60A      0.098058  
      61A      0.112875    62A      0.118374    63A      0.126578  
      64A      0.129806    65A      0.140893    66A      0.151108  
      67A      0.161757    68A      0.165746    69A      0.175939  
      70A      0.188771    71A      0.190699    72A      0.213711  
      73A      0.229826    74A      0.245872    75A      0.251596  
      76A      0.269934    77A      0.286425    78A      0.314676  
      79A      0.328358    80A      0.348169    81A      0.357251  
      82A      0.435738    83A      0.441950    84A      0.449588  
      85A      0.463779    86A      0.469817    87A      0.470604  
      88A      0.495569    89A      0.513688    90A      0.522345  
      91A      0.524262    92A      0.537134    93A      0.552679  
      94A      0.555031    95A      0.568526    96A      0.575761  
      97A      0.576219    98A      0.577373    99A      0.589606  
     100A      0.604520   101A      0.616820   102A      0.642179  
     103A      0.648838   104A      0.650615   105A      0.672076  
     106A      0.681595   107A      0.691777   108A      0.697531  
     109A      0.708297   110A      0.713771   111A      0.716822  
     112A      0.731675   113A      0.733665   114A      0.744861  
     115A      0.746904   116A      0.753771   117A      0.757026  
     118A      0.765152   119A      0.767144   120A      0.771276  
     121A      0.779651   122A      0.783457   123A      0.786578  
     124A      0.797096   125A      0.801407   126A      0.819150  
     127A      0.828338   128A      0.832570   129A      0.839954  
     130A      0.855390   131A      0.879039   132A      0.897161  
     133A      0.915323   134A      0.927586   135A      0.962188  
     136A      0.975223   137A      0.978554   138A      0.997173  
     139A      1.011953   140A      1.019269   141A      1.039963  
     142A      1.055066   143A      1.065282   144A      1.076994  
     145A      1.105732   146A      1.116235   147A      1.127009  
     148A      1.160362   149A      1.182884   150A      1.199848  
     151A      1.215810   152A      1.258173   153A      1.283545  
     154A      1.306267   155A      1.314840   156A      1.324840  
     157A      1.326490   158A      1.331698   159A      1.366252  
     160A      1.393390   161A      1.406236   162A      1.425477  
     163A      1.447991   164A      1.470911   165A      1.510586  
     166A      1.529068   167A      1.544173   168A      1.564777  
     169A      1.574954   170A      1.594057   171A      1.600542  
     172A      1.608150   173A      1.629139   174A      1.635430  
     175A      1.650401   176A      1.674318   177A      1.691839  
     178A      1.694277   179A      1.700632   180A      1.708642  
     181A      1.713730   182A      1.723530   183A      1.746611  
     184A      1.751202   185A      1.767658   186A      1.779977  
     187A      1.782667   188A      1.791879   189A      1.792839  
     190A      1.806683   191A      1.819743   192A      1.823132  
     193A      1.832294   194A      1.850739   195A      1.864931  
     196A      1.867063   197A      1.879506   198A      1.888259  
     199A      1.902553   200A      1.913945   201A      1.920372  
     202A      1.941944   203A      1.945157   204A      1.959573  
     205A      1.964662   206A      1.980195   207A      2.010162  
     208A      2.014553   209A      2.030353   210A      2.051795  
     211A      2.055080   212A      2.069452   213A      2.075757  
     214A      2.084953   215A      2.089835   216A      2.125619  
     217A      2.158187   218A      2.189696   219A      2.202284  
     220A      2.209670   221A      2.224196   222A      2.255299  
     223A      2.272533   224A      2.283955   225A      2.290423  
     226A      2.321409   227A      2.325508   228A      2.350214  
     229A      2.353989   230A      2.378178   231A      2.409126  
     232A      2.434566   233A      2.464160   234A      2.495883  
     235A      2.507166   236A      2.527015   237A      2.556644  
     238A      2.585082   239A      2.603541   240A      2.617079  
     241A      2.624233   242A      2.687920   243A      2.696921  
     244A      2.711805   245A      2.737865   246A      2.761969  
     247A      2.772727   248A      2.790582   249A      2.835446  
     250A      2.856388   251A      2.864631   252A      2.897250  
     253A      2.950966   254A      3.012091   255A      3.110923  
     256A      3.617522  

    Final Occupation by Irrep:
              A 
    DOCC [    51 ]

  @DF-RHF Final Energy:  -921.86868621217263

   => Energetics <=

    Nuclear Repulsion Energy =            833.7894228293558854
    One-Electron Energy =               -2899.3051778830731564
    Two-Electron Energy =                1143.6470688415447512
    Total Energy =                       -921.8686862121726335

Computation Completed


Properties will be evaluated at   0.000000,   0.000000,   0.000000 [a0]

Properties computed using the SCF density matrix

  Nuclear Dipole Moment: [e a0]
     X:    25.6551      Y:    -3.0783      Z:   -13.8316

  Electronic Dipole Moment: [e a0]
     X:   -24.0485      Y:     3.1044      Z:    13.2183

  Dipole Moment: [e a0]
     X:     1.6066      Y:     0.0261      Z:    -0.6133     Total:     1.7199

  Dipole Moment: [D]
     X:     4.0836      Y:     0.0663      Z:    -1.5588     Total:     4.3715


*** tstop() called on skystd01.palmetto.clemson.edu at Thu Dec 30 19:54:05 2021
Module time:
	user time   =      18.95 seconds =       0.32 minutes
	system time =       0.80 seconds =       0.01 minutes
	total time  =         20 seconds =       0.33 minutes
Total time:
	user time   =     121.53 seconds =       2.03 minutes
	system time =       5.39 seconds =       0.09 minutes
	total time  =        128 seconds =       2.13 minutes

*** tstart() called on skystd01.palmetto.clemson.edu
*** at Thu Dec 30 19:54:05 2021


  //>>>>>>>>>>>>>>>>>>>>>>>>>>>>>>>>>>>//
  //               DFMP2               //
  //<<<<<<<<<<<<<<<<<<<<<<<<<<<<<<<<<<<//

   => Loading Basis Set <=

    Name: (CC-PVDZ AUX)
    Role: RIFIT
    Keyword: DF_BASIS_MP2
    atoms 1-12         entry C          line   159 file /home/maxbuskirk/.conda/envs/psifour/share/psi4/basis/cc-pvdz-ri.gbs 
    atoms 13-21, 23-27 entry H          line    19 file /home/maxbuskirk/.conda/envs/psifour/share/psi4/basis/cc-pvdz-ri.gbs 
    atoms 22           entry CL         line   649 file /home/maxbuskirk/.conda/envs/psifour/share/psi4/basis/cc-pvdz-ri.gbs 

	 --------------------------------------------------------
	                          DF-MP2                         
	      2nd-Order Density-Fitted Moller-Plesset Theory     
	              RMP2 Wavefunction,   1 Threads             
	                                                         
	        Rob Parrish, Justin Turney, Andy Simmonett,      
	           Ed Hohenstein, and C. David Sherrill          
	 --------------------------------------------------------

   => Auxiliary Basis Set <=

  Basis Set: (CC-PVDZ AUX)
    Blend: CC-PVDZ-RI
    Number of shells: 324
    Number of basis functions: 944
    Number of Cartesian functions: 1092
    Spherical Harmonics?: true
    Max angular momentum: 3

	 --------------------------------------------------------
	                 NBF =   256, NAUX =   944
	 --------------------------------------------------------
	   CLASS    FOCC     OCC    AOCC    AVIR     VIR    FVIR
	   PAIRS       0      51      51     205     205       0
	 --------------------------------------------------------

  DFHelper Memory: AOs need 0.573 GiB; user supplied 22.352 GiB. Using in-core AOs.


         ------------------------------------------------------------
                                     CPHF                           
                                  Rob Parrish                       
         ------------------------------------------------------------

  ==> Geometry <==

    Molecular point group: c1
    Full point group: C1

    Geometry (in Angstrom), charge = 1, multiplicity = 1:

       Center              X                  Y                   Z               Mass       
    ------------   -----------------  -----------------  -----------------  -----------------
         C           -0.156466026402     1.292684735091     0.645451860993    12.000000000000
         C            0.301752605398     0.099766782191    -0.005142103007    12.000000000000
         C           -0.579529605402    -1.029584367709    -0.077151997207    12.000000000000
         C           -1.853331118302    -0.964837976109     0.467421987093    12.000000000000
         C           -2.290981523402     0.236251928291     1.077125612193    12.000000000000
         C           -1.442541339202     1.366145102291     1.160579968393    12.000000000000
         C            1.596223314398     0.044213965591    -0.560796696207    12.000000000000
         C            2.677615124798     1.049331825491    -0.345778421007    12.000000000000
         C            3.959011887498     0.197991569291    -0.467110678607    12.000000000000
         C            3.614362655598    -0.730107900609    -1.637269734607    12.000000000000
         C            2.116130227598    -1.061696822409    -1.439613764507    12.000000000000
         C            1.342670016498    -1.177359853009    -2.772213845007    12.000000000000
         H            2.007255063098    -2.010171143109    -0.877016799107     1.007825032230
         H            4.236912013498    -1.634922178709    -1.682468839407     1.007825032230
         H            3.741145197098    -0.188860645109    -2.590945264207     1.007825032230
         H            4.110931668798    -0.376268772709     0.462040178293     1.007825032230
         H            4.851915945298     0.815530893991    -0.637646676207     1.007825032230
         H            2.579897705798     1.647416477191     0.569706613893     1.007825032230
         H            2.634972186498     1.740953665291    -1.215911893207     1.007825032230
         H            0.494478458398     2.167979275391     0.705668208993     1.007825032230
         H           -1.805979036502     2.279120820291     1.637863714893     1.007825032230
         CL          -3.866143834102     0.318074865491     1.733475094993    34.968852682000
         H           -2.523020574902    -1.827399251309     0.435647343193     1.007825032230
         H           -0.236717328702    -1.964846901309    -0.524722170907     1.007825032230
         H            0.292693424698    -1.470442880309    -2.632445872607     1.007825032230
         H            1.836779279198    -1.934245483109    -3.400413459107     1.007825032230
         H            1.369755066398    -0.216880741109    -3.310810263707     1.007825032230

  Nuclear repulsion =  833.789422829355885
  Reference energy  = -921.868686212172634

  ==> Basis Set <==

  Basis Set: CC-PVDZ
    Blend: CC-PVDZ
    Number of shells: 122
    Number of basis functions: 256
    Number of Cartesian functions: 269
    Spherical Harmonics?: true
    Max angular momentum: 2

  ==> CGRSolver (by Rob Parrish) <==

   Number of roots    =         1
   Preconditioning    =    JACOBI
   Convergence cutoff =     1E-06
   Maximum iterations =       100

  ==> CPHFRHamiltonian (by Rob Parrish) <== 

  ==> MemDFJK: Density-Fitted J/K Matrices <==

    J tasked:                   Yes
    K tasked:                   Yes
    wK tasked:                   No
    OpenMP threads:               1
    Memory [MiB]:             22888
    Algorithm:                 Core
    Schwarz Cutoff:           1E-12
    Mask sparsity (%):      11.5509
    Fitting Condition:        1E-10

   => Auxiliary Basis Set <=

  Basis Set: (CC-PVDZ AUX)
    Blend: CC-PVDZ-JKFIT
    Number of shells: 450
    Number of basis functions: 1274
    Number of Cartesian functions: 1452
    Spherical Harmonics?: true
    Max angular momentum: 3

  ==> CPHF Iterations <==

  => Iterations <=

             Iter  Converged  Remaining    Residual
  CGR           1          0          1   1.355E-01
  CGR           2          0          1   4.618E-02
  CGR           3          0          1   2.067E-02
  CGR           4          0          1   6.727E-03
  CGR           5          0          1   3.993E-03
  CGR           6          0          1   1.571E-03
  CGR           7          0          1   6.335E-04
  CGR           8          0          1   2.432E-04
  CGR           9          0          1   8.757E-05
  CGR          10          0          1   2.341E-05
  CGR          11          0          1   7.421E-06
  CGR          12          0          1   2.432E-06
  CGR          13          1          0   9.576E-07

    CGRSolver converged.

  ==> DFCorrGrad: Density-Fitted Correlated Gradients <==

    OpenMP threads:              1
    Integrals threads:           1
    Memory [GiB]:           22.352
    Schwarz Cutoff:          0E+00
    Fitting Condition:       1E-10

   => Auxiliary Basis Set <=

  Basis Set: (CC-PVDZ AUX)
    Blend: CC-PVDZ-JKFIT
    Number of shells: 450
    Number of basis functions: 1274
    Number of Cartesian functions: 1452
    Spherical Harmonics?: true
    Max angular momentum: 3

	-----------------------------------------------------------
	 ==================> DF-MP2 Energies <==================== 
	-----------------------------------------------------------
	 Reference Energy          =    -921.8686862121726335 [Eh]
	 Singles Energy            =      -0.0000000000000000 [Eh]
	 Same-Spin Energy          =      -0.4600377053192058 [Eh]
	 Opposite-Spin Energy      =      -1.3072232271888027 [Eh]
	 Correlation Energy        =      -1.7672609325080084 [Eh]
	 Total Energy              =    -923.6359471446805856 [Eh]
	-----------------------------------------------------------
	 ================> DF-SCS-MP2 Energies <================== 
	-----------------------------------------------------------
	 SCS Same-Spin Scale       =       0.3333333333333333 [-]
	 SCS Opposite-Spin Scale   =       1.2000000000000000 [-]
	 SCS Same-Spin Energy      =      -0.1533459017730686 [Eh]
	 SCS Opposite-Spin Energy  =      -1.5686678726265633 [Eh]
	 SCS Correlation Energy    =      -1.7220137743996318 [Eh]
	 SCS Total Energy          =    -923.5906999865723037 [Eh]
	-----------------------------------------------------------


  -Total Gradient:
     Atom            X                  Y                   Z
    ------   -----------------  -----------------  -----------------
       1       -0.000005507358     0.000008775916    -0.000014898676
       2        0.000016406900    -0.000004582244     0.000018273851
       3        0.000000049218    -0.000007353250     0.000021029729
       4        0.000002049103    -0.000004795435    -0.000002901072
       5       -0.000001219275     0.000001071462     0.000001762252
       6        0.000000798477     0.000001892988    -0.000001306866
       7        0.000013942760     0.000006653267     0.000012623003
       8       -0.000004769617     0.000009695158    -0.000002897043
       9       -0.000002069352    -0.000006887563     0.000004467725
      10       -0.000003231368    -0.000005955972     0.000004175000
      11       -0.000030307582     0.000013300844     0.000008270380
      12        0.000027083092     0.000006766848    -0.000013229333
      13       -0.000006611174    -0.000005300625    -0.000004810279
      14       -0.000000052427    -0.000000935059    -0.000001720329
      15       -0.000001725431     0.000000054252     0.000001414115
      16        0.000001613539     0.000002019095     0.000001940419
      17       -0.000001166171    -0.000000067265    -0.000002040287
      18       -0.000001815434    -0.000005544663     0.000002655087
      19        0.000002568915     0.000004751004     0.000003002088
      20       -0.000000710118     0.000000683689     0.000000351307
      21       -0.000000093898     0.000000413151    -0.000000956037
      22        0.000001584365     0.000000034006    -0.000000195952
      23       -0.000000355889    -0.000000006876     0.000000061124
      24        0.000001796776    -0.000001225300    -0.000003689882
      25       -0.000002119769    -0.000010722868     0.000000179600
      26       -0.000004884889    -0.000003120250    -0.000009776464
      27       -0.000001253433     0.000000385705    -0.000021783456


*** tstop() called on skystd01.palmetto.clemson.edu at Thu Dec 30 19:55:32 2021
Module time:
	user time   =      83.34 seconds =       1.39 minutes
	system time =       3.75 seconds =       0.06 minutes
	total time  =         87 seconds =       1.45 minutes
Total time:
	user time   =     204.87 seconds =       3.41 minutes
	system time =       9.14 seconds =       0.15 minutes
	total time  =        215 seconds =       3.58 minutes

  //>>>>>>>>>>>>>>>>>>>>>>>>>>>>>>>>>>>//
  //   Loading displacement 2 of 151   //
  //<<<<<<<<<<<<<<<<<<<<<<<<<<<<<<<<<<<//

Scratch directory: /tmp/
gradient() will perform analytic gradient computation.

*** tstart() called on skystd01.palmetto.clemson.edu
*** at Thu Dec 30 19:55:32 2021

   => Loading Basis Set <=

    Name: CC-PVDZ
    Role: ORBITAL
    Keyword: BASIS
    atoms 1-12         entry C          line   138 file /home/maxbuskirk/.conda/envs/psifour/share/psi4/basis/cc-pvdz.gbs 
    atoms 13-21, 23-27 entry H          line    22 file /home/maxbuskirk/.conda/envs/psifour/share/psi4/basis/cc-pvdz.gbs 
    atoms 22           entry CL         line   658 file /home/maxbuskirk/.conda/envs/psifour/share/psi4/basis/cc-pvdz.gbs 


         ---------------------------------------------------------
                                   SCF
               by Justin Turney, Rob Parrish, Andy Simmonett
                          and Daniel G. A. Smith
                              RHF Reference
                        1 Threads,  30517 MiB Core
         ---------------------------------------------------------

  ==> Geometry <==

    Molecular point group: c1
    Full point group: C1

    Geometry (in Angstrom), charge = 1, multiplicity = 1:

       Center              X                  Y                   Z               Mass       
    ------------   -----------------  -----------------  -----------------  -----------------
         C           -0.157196575409     1.292678065508     0.645469675779    12.000000000000
         C            0.301803545842     0.099762862208    -0.005141358103    12.000000000000
         C           -0.579493741143    -1.029575661002    -0.077164772578    12.000000000000
         C           -1.853293304781    -0.964819800513     0.467412645409    12.000000000000
         C           -2.290926605798     0.236267635930     1.077133409734    12.000000000000
         C           -1.442471315272     1.366148462520     1.160601359477    12.000000000000
         C            1.596272404888     0.044200453455    -0.560799302017    12.000000000000
         C            2.677677936019     1.049301104849    -0.345769590159    12.000000000000
         C            3.959063199219     0.197945549390    -0.467115945794    12.000000000000
         C            3.614399347453    -0.730133521857    -1.637286874755    12.000000000000
         C            2.116162932167    -1.061705310812    -1.439632386113    12.000000000000
         C            1.342698516667    -1.177340074102    -2.772232479780    12.000000000000
         H            2.007276356893    -2.010185808603    -0.877048042826     1.007825032230
         H            4.236936651686    -1.634955419028    -1.682499478910     1.007825032230
         H            3.741187130524    -0.188875031509    -2.590955331331     1.007825032230
         H            4.110977253236    -0.376329380278     0.462026831652     1.007825032230
         H            4.851975079418     0.815475377388    -0.637645375484     1.007825032230
         H            2.579970262368     1.647374654451     0.569723737924     1.007825032230
         H            2.635042395165     1.740935288530    -1.215893613408     1.007825032230
         H            0.494558170488     2.167963184174     0.705696566973     1.007825032230
         H           -1.805895983597     2.279122524098     1.637898195661     1.007825032230
         CL          -3.866086517072     0.318102513192     1.733487162383    34.968852682000
         H           -2.522994229454    -1.827371791294     0.435627668332     1.007825032230
         H           -0.236694728431    -1.964836667752    -0.524748296281     1.007825032230
         H            0.292718330474    -1.470411111433    -2.632466367401     1.007825032230
         H            1.836796511164    -1.934223732307    -3.400443332699     1.007825032230
         H            1.369795184242    -0.216854028654    -3.310815949650     1.007825032230

  Running in c1 symmetry.

  Rotational constants: A =      0.06567  B =      0.01063  C =      0.00955 [cm^-1]
  Rotational constants: A =   1968.61586  B =    318.55736  C =    286.39310 [MHz]
  Nuclear repulsion =  833.793585531876602

  Charge       = 1
  Multiplicity = 1
  Electrons    = 102
  Nalpha       = 51
  Nbeta        = 51

  ==> Algorithm <==

  SCF Algorithm Type is DF.
  DIIS enabled.
  MOM disabled.
  Fractional occupation disabled.
  Guess Type is SAD.
  Energy threshold   = 1.00e-10
  Density threshold  = 1.00e-10
  Integral threshold = 1.00e-12

  ==> Primary Basis <==

  Basis Set: CC-PVDZ
    Blend: CC-PVDZ
    Number of shells: 122
    Number of basis functions: 256
    Number of Cartesian functions: 269
    Spherical Harmonics?: true
    Max angular momentum: 2

   => Loading Basis Set <=

    Name: (CC-PVDZ AUX)
    Role: JKFIT
    Keyword: DF_BASIS_SCF
    atoms 1-12         entry C          line   121 file /home/maxbuskirk/.conda/envs/psifour/share/psi4/basis/cc-pvdz-jkfit.gbs 
    atoms 13-21, 23-27 entry H          line    51 file /home/maxbuskirk/.conda/envs/psifour/share/psi4/basis/cc-pvdz-jkfit.gbs 
    atoms 22           entry CL         line   667 file /home/maxbuskirk/.conda/envs/psifour/share/psi4/basis/cc-pvdz-jkfit.gbs 

  ==> Integral Setup <==

  DFHelper Memory: AOs need 0.573 GiB; user supplied 22.352 GiB. Using in-core AOs.

  ==> MemDFJK: Density-Fitted J/K Matrices <==

    J tasked:                   Yes
    K tasked:                   Yes
    wK tasked:                   No
    OpenMP threads:               1
    Memory [MiB]:             22888
    Algorithm:                 Core
    Schwarz Cutoff:           1E-12
    Mask sparsity (%):      11.5540
    Fitting Condition:        1E-10

   => Auxiliary Basis Set <=

  Basis Set: (CC-PVDZ AUX)
    Blend: CC-PVDZ-JKFIT
    Number of shells: 450
    Number of basis functions: 1274
    Number of Cartesian functions: 1452
    Spherical Harmonics?: true
    Max angular momentum: 3

  Minimum eigenvalue in the overlap matrix is 3.0783866095E-04.
  Reciprocal condition number of the overlap matrix is 4.5531733157E-05.
    Using symmetric orthogonalization.

  ==> Pre-Iterations <==

  SCF Guess: Superposition of Atomic Densities via on-the-fly atomic UHF (no occupation information).

   -------------------------
    Irrep   Nso     Nmo    
   -------------------------
     A        256     256 
   -------------------------
    Total     256     256
   -------------------------

  ==> Iterations <==

                           Total Energy        Delta E     RMS |[F,P]|

   @DF-RHF iter SAD:  -921.75247667382428   -9.21752e+02   0.00000e+00 
   @DF-RHF iter   1:  -921.63341674907781    1.19060e-01   2.17147e-03 DIIS
   @DF-RHF iter   2:  -921.83331749953709   -1.99901e-01   8.99260e-04 DIIS
   @DF-RHF iter   3:  -921.86362617712746   -3.03087e-02   2.82087e-04 DIIS
   @DF-RHF iter   4:  -921.86818687375046   -4.56070e-03   9.58934e-05 DIIS
   @DF-RHF iter   5:  -921.86860315806678   -4.16284e-04   2.99490e-05 DIIS
   @DF-RHF iter   6:  -921.86868472095762   -8.15629e-05   1.18285e-05 DIIS
   @DF-RHF iter   7:  -921.86869822578785   -1.35048e-05   4.64954e-06 DIIS
   @DF-RHF iter   8:  -921.86870079019241   -2.56440e-06   1.72264e-06 DIIS
   @DF-RHF iter   9:  -921.86870128226701   -4.92075e-07   8.86872e-07 DIIS
   @DF-RHF iter  10:  -921.86870140288602   -1.20619e-07   3.72417e-07 DIIS
   @DF-RHF iter  11:  -921.86870142989846   -2.70124e-08   1.46505e-07 DIIS
   @DF-RHF iter  12:  -921.86870143278406   -2.88560e-09   5.20564e-08 DIIS
   @DF-RHF iter  13:  -921.86870143315139   -3.67322e-10   2.31995e-08 DIIS
   @DF-RHF iter  14:  -921.86870143321676   -6.53699e-11   5.84733e-09 DIIS
   @DF-RHF iter  15:  -921.86870143321914   -2.38742e-12   2.03706e-09 DIIS
   @DF-RHF iter  16:  -921.86870143321948   -3.41061e-13   6.38578e-10 DIIS
   @DF-RHF iter  17:  -921.86870143321971   -2.27374e-13   3.21096e-10 DIIS
   @DF-RHF iter  18:  -921.86870143322176   -2.04636e-12   1.26104e-10 DIIS
   @DF-RHF iter  19:  -921.86870143322153    2.27374e-13   4.38407e-11 DIIS
  Energy and wave function converged.


  ==> Post-Iterations <==

    Orbital Energies [Eh]
    ---------------------

    Doubly Occupied:                                                      

       1A   -104.984000     2A    -11.498061     3A    -11.495594  
       4A    -11.443715     5A    -11.443316     6A    -11.425728  
       7A    -11.411914     8A    -11.411366     9A    -11.407149  
      10A    -11.406686    11A    -11.379603    12A    -11.377942  
      13A    -11.373735    14A    -10.711094    15A     -8.178680  
      16A     -8.174985    17A     -8.174796    18A     -1.360942  
      19A     -1.330426    20A     -1.277955    21A     -1.202185  
      22A     -1.190594    23A     -1.176731    24A     -1.103303  
      25A     -1.052989    26A     -1.011001    27A     -0.995019  
      28A     -0.944289    29A     -0.907026    30A     -0.861112  
      31A     -0.824781    32A     -0.815309    33A     -0.795360  
      34A     -0.776203    35A     -0.769598    36A     -0.741129  
      37A     -0.723383    38A     -0.708195    39A     -0.701463  
      40A     -0.692962    41A     -0.686403    42A     -0.669554  
      43A     -0.662562    44A     -0.637334    45A     -0.630935  
      46A     -0.619956    47A     -0.614349    48A     -0.611000  
      49A     -0.596178    50A     -0.513860    51A     -0.503168  

    Virtual:                                                              

      52A     -0.155563    53A     -0.033204    54A      0.000524  
      55A      0.028906    56A      0.050170    57A      0.059167  
      58A      0.069270    59A      0.090358    60A      0.098052  
      61A      0.112876    62A      0.118384    63A      0.126584  
      64A      0.129810    65A      0.140902    66A      0.151127  
      67A      0.161769    68A      0.165757    69A      0.175969  
      70A      0.188785    71A      0.190704    72A      0.213718  
      73A      0.229847    74A      0.245870    75A      0.251626  
      76A      0.269930    77A      0.286415    78A      0.314717  
      79A      0.328354    80A      0.348181    81A      0.357318  
      82A      0.435755    83A      0.441945    84A      0.449625  
      85A      0.463793    86A      0.469881    87A      0.470567  
      88A      0.495550    89A      0.513670    90A      0.522259  
      91A      0.524230    92A      0.537123    93A      0.552664  
      94A      0.554998    95A      0.568503    96A      0.575752  
      97A      0.576256    98A      0.577356    99A      0.589668  
     100A      0.604516   101A      0.616812   102A      0.642159  
     103A      0.648844   104A      0.650613   105A      0.672064  
     106A      0.681624   107A      0.691802   108A      0.697579  
     109A      0.708311   110A      0.713781   111A      0.716831  
     112A      0.731685   113A      0.733682   114A      0.744876  
     115A      0.746881   116A      0.753774   117A      0.757019  
     118A      0.765145   119A      0.767169   120A      0.771299  
     121A      0.779675   122A      0.783472   123A      0.786584  
     124A      0.797108   125A      0.801409   126A      0.819153  
     127A      0.828336   128A      0.832550   129A      0.839940  
     130A      0.855398   131A      0.879045   132A      0.897164  
     133A      0.915337   134A      0.927649   135A      0.962187  
     136A      0.975223   137A      0.978584   138A      0.997255  
     139A      1.011977   140A      1.019288   141A      1.039954  
     142A      1.055147   143A      1.065353   144A      1.076981  
     145A      1.105716   146A      1.116187   147A      1.127016  
     148A      1.160361   149A      1.182881   150A      1.199893  
     151A      1.215829   152A      1.258185   153A      1.283563  
     154A      1.306261   155A      1.314851   156A      1.324834  
     157A      1.326456   158A      1.331701   159A      1.366312  
     160A      1.393378   161A      1.406252   162A      1.425496  
     163A      1.447987   164A      1.470928   165A      1.510609  
     166A      1.529082   167A      1.544185   168A      1.564786  
     169A      1.574972   170A      1.594093   171A      1.600559  
     172A      1.608201   173A      1.629155   174A      1.635410  
     175A      1.650392   176A      1.674324   177A      1.691869  
     178A      1.694292   179A      1.700588   180A      1.708665  
     181A      1.713736   182A      1.723565   183A      1.746666  
     184A      1.751247   185A      1.767676   186A      1.779901  
     187A      1.782632   188A      1.791924   189A      1.792835  
     190A      1.806668   191A      1.819765   192A      1.823143  
     193A      1.832294   194A      1.850785   195A      1.865019  
     196A      1.867122   197A      1.879635   198A      1.888230  
     199A      1.902556   200A      1.913913   201A      1.920396  
     202A      1.941918   203A      1.945135   204A      1.959608  
     205A      1.964640   206A      1.980188   207A      2.010182  
     208A      2.014577   209A      2.030365   210A      2.051819  
     211A      2.055067   212A      2.069532   213A      2.075735  
     214A      2.084971   215A      2.089846   216A      2.125580  
     217A      2.158194   218A      2.189704   219A      2.202297  
     220A      2.209698   221A      2.224185   222A      2.255321  
     223A      2.272474   224A      2.283974   225A      2.290449  
     226A      2.321429   227A      2.325560   228A      2.350223  
     229A      2.354027   230A      2.378192   231A      2.409136  
     232A      2.434565   233A      2.464152   234A      2.495901  
     235A      2.507213   236A      2.527095   237A      2.556647  
     238A      2.585102   239A      2.603415   240A      2.617051  
     241A      2.624241   242A      2.687945   243A      2.696934  
     244A      2.711894   245A      2.737870   246A      2.762122  
     247A      2.772751   248A      2.790607   249A      2.835548  
     250A      2.856259   251A      2.864621   252A      2.897270  
     253A      2.951042   254A      3.012371   255A      3.110649  
     256A      3.617578  

    Final Occupation by Irrep:
              A 
    DOCC [    51 ]

  @DF-RHF Final Energy:  -921.86870143322153

   => Energetics <=

    Nuclear Repulsion Energy =            833.7935855318766016
    One-Electron Energy =               -2899.3133354074702766
    Two-Electron Energy =                1143.6510484423722573
    Total Energy =                       -921.8687014332215313

Computation Completed


Properties will be evaluated at   0.000000,   0.000000,   0.000000 [a0]

Properties computed using the SCF density matrix

  Nuclear Dipole Moment: [e a0]
     X:    25.6556      Y:    -3.0785      Z:   -13.8317

  Electronic Dipole Moment: [e a0]
     X:   -24.0504      Y:     3.1042      Z:    13.2189

  Dipole Moment: [e a0]
     X:     1.6052      Y:     0.0257      Z:    -0.6128     Total:     1.7184

  Dipole Moment: [D]
     X:     4.0800      Y:     0.0654      Z:    -1.5576     Total:     4.3677


*** tstop() called on skystd01.palmetto.clemson.edu at Thu Dec 30 19:55:52 2021
Module time:
	user time   =      19.03 seconds =       0.32 minutes
	system time =       0.79 seconds =       0.01 minutes
	total time  =         20 seconds =       0.33 minutes
Total time:
	user time   =     223.90 seconds =       3.73 minutes
	system time =       9.96 seconds =       0.17 minutes
	total time  =        235 seconds =       3.92 minutes

*** tstart() called on skystd01.palmetto.clemson.edu
*** at Thu Dec 30 19:55:52 2021


  //>>>>>>>>>>>>>>>>>>>>>>>>>>>>>>>>>>>//
  //               DFMP2               //
  //<<<<<<<<<<<<<<<<<<<<<<<<<<<<<<<<<<<//

   => Loading Basis Set <=

    Name: (CC-PVDZ AUX)
    Role: RIFIT
    Keyword: DF_BASIS_MP2
    atoms 1-12         entry C          line   159 file /home/maxbuskirk/.conda/envs/psifour/share/psi4/basis/cc-pvdz-ri.gbs 
    atoms 13-21, 23-27 entry H          line    19 file /home/maxbuskirk/.conda/envs/psifour/share/psi4/basis/cc-pvdz-ri.gbs 
    atoms 22           entry CL         line   649 file /home/maxbuskirk/.conda/envs/psifour/share/psi4/basis/cc-pvdz-ri.gbs 

	 --------------------------------------------------------
	                          DF-MP2                         
	      2nd-Order Density-Fitted Moller-Plesset Theory     
	              RMP2 Wavefunction,   1 Threads             
	                                                         
	        Rob Parrish, Justin Turney, Andy Simmonett,      
	           Ed Hohenstein, and C. David Sherrill          
	 --------------------------------------------------------

   => Auxiliary Basis Set <=

  Basis Set: (CC-PVDZ AUX)
    Blend: CC-PVDZ-RI
    Number of shells: 324
    Number of basis functions: 944
    Number of Cartesian functions: 1092
    Spherical Harmonics?: true
    Max angular momentum: 3

	 --------------------------------------------------------
	                 NBF =   256, NAUX =   944
	 --------------------------------------------------------
	   CLASS    FOCC     OCC    AOCC    AVIR     VIR    FVIR
	   PAIRS       0      51      51     205     205       0
	 --------------------------------------------------------

  DFHelper Memory: AOs need 0.573 GiB; user supplied 22.352 GiB. Using in-core AOs.


         ------------------------------------------------------------
                                     CPHF                           
                                  Rob Parrish                       
         ------------------------------------------------------------

  ==> Geometry <==

    Molecular point group: c1
    Full point group: C1

    Geometry (in Angstrom), charge = 1, multiplicity = 1:

       Center              X                  Y                   Z               Mass       
    ------------   -----------------  -----------------  -----------------  -----------------
         C           -0.157196575409     1.292678065508     0.645469675779    12.000000000000
         C            0.301803545842     0.099762862208    -0.005141358103    12.000000000000
         C           -0.579493741143    -1.029575661002    -0.077164772578    12.000000000000
         C           -1.853293304781    -0.964819800513     0.467412645409    12.000000000000
         C           -2.290926605798     0.236267635930     1.077133409734    12.000000000000
         C           -1.442471315272     1.366148462520     1.160601359477    12.000000000000
         C            1.596272404888     0.044200453455    -0.560799302017    12.000000000000
         C            2.677677936019     1.049301104849    -0.345769590159    12.000000000000
         C            3.959063199219     0.197945549390    -0.467115945794    12.000000000000
         C            3.614399347453    -0.730133521857    -1.637286874755    12.000000000000
         C            2.116162932167    -1.061705310812    -1.439632386113    12.000000000000
         C            1.342698516667    -1.177340074102    -2.772232479780    12.000000000000
         H            2.007276356893    -2.010185808603    -0.877048042826     1.007825032230
         H            4.236936651686    -1.634955419028    -1.682499478910     1.007825032230
         H            3.741187130524    -0.188875031509    -2.590955331331     1.007825032230
         H            4.110977253236    -0.376329380278     0.462026831652     1.007825032230
         H            4.851975079418     0.815475377388    -0.637645375484     1.007825032230
         H            2.579970262368     1.647374654451     0.569723737924     1.007825032230
         H            2.635042395165     1.740935288530    -1.215893613408     1.007825032230
         H            0.494558170488     2.167963184174     0.705696566973     1.007825032230
         H           -1.805895983597     2.279122524098     1.637898195661     1.007825032230
         CL          -3.866086517072     0.318102513192     1.733487162383    34.968852682000
         H           -2.522994229454    -1.827371791294     0.435627668332     1.007825032230
         H           -0.236694728431    -1.964836667752    -0.524748296281     1.007825032230
         H            0.292718330474    -1.470411111433    -2.632466367401     1.007825032230
         H            1.836796511164    -1.934223732307    -3.400443332699     1.007825032230
         H            1.369795184242    -0.216854028654    -3.310815949650     1.007825032230

  Nuclear repulsion =  833.793585531876602
  Reference energy  = -921.868701433221531

  ==> Basis Set <==

  Basis Set: CC-PVDZ
    Blend: CC-PVDZ
    Number of shells: 122
    Number of basis functions: 256
    Number of Cartesian functions: 269
    Spherical Harmonics?: true
    Max angular momentum: 2

  ==> CGRSolver (by Rob Parrish) <==

   Number of roots    =         1
   Preconditioning    =    JACOBI
   Convergence cutoff =     1E-06
   Maximum iterations =       100

  ==> CPHFRHamiltonian (by Rob Parrish) <== 

  ==> MemDFJK: Density-Fitted J/K Matrices <==

    J tasked:                   Yes
    K tasked:                   Yes
    wK tasked:                   No
    OpenMP threads:               1
    Memory [MiB]:             22888
    Algorithm:                 Core
    Schwarz Cutoff:           1E-12
    Mask sparsity (%):      11.5540
    Fitting Condition:        1E-10

   => Auxiliary Basis Set <=

  Basis Set: (CC-PVDZ AUX)
    Blend: CC-PVDZ-JKFIT
    Number of shells: 450
    Number of basis functions: 1274
    Number of Cartesian functions: 1452
    Spherical Harmonics?: true
    Max angular momentum: 3

  ==> CPHF Iterations <==

  => Iterations <=

             Iter  Converged  Remaining    Residual
  CGR           1          0          1   1.355E-01
  CGR           2          0          1   4.620E-02
  CGR           3          0          1   2.067E-02
  CGR           4          0          1   6.729E-03
  CGR           5          0          1   3.986E-03
  CGR           6          0          1   1.567E-03
[...]
      5   C               -0.00  0.00  0.00    0.00  0.00 -0.00   -0.00 -0.00  0.00   
      6   C               -0.00  0.00  0.00   -0.00 -0.00 -0.00    0.00  0.00  0.00   
      7   C               -0.00 -0.00  0.00    0.00  0.00 -0.00   -0.00 -0.00  0.00   
      8   C               -0.00  0.00  0.00    0.01 -0.04 -0.08   -0.00  0.01  0.02   
      9   C                0.02  0.02 -0.01   -0.02 -0.01  0.01   -0.05 -0.06  0.04   
     10   C                0.04 -0.07  0.02    0.00 -0.01  0.00    0.01 -0.03  0.01   
     11   C               -0.00 -0.00  0.00    0.00  0.00  0.00    0.00 -0.00  0.00   
     12   C                0.00  0.00 -0.00   -0.00  0.00  0.00    0.00  0.01 -0.00   
     13   H                0.01  0.04 -0.02    0.00  0.00 -0.00    0.00  0.01 -0.00   
     14   H               -0.48  0.71  0.03   -0.05  0.08  0.00   -0.15  0.22  0.01   
     15   H                0.05  0.17 -0.32    0.01  0.03 -0.06    0.02  0.09 -0.16   
     16   H                0.02 -0.05  0.08   -0.01  0.04 -0.07   -0.07  0.24 -0.39   
     17   H               -0.27 -0.19  0.05    0.20  0.13 -0.04    0.63  0.43 -0.12   
     18   H                0.00 -0.01 -0.02   -0.09  0.51  0.78    0.02 -0.14 -0.22   
     19   H                0.00 -0.00  0.01    0.00 -0.12  0.13   -0.00  0.06 -0.06   
     20   H                0.00  0.00  0.00   -0.04 -0.05 -0.00    0.01  0.02  0.00   
     21   H                0.00 -0.00 -0.00   -0.00  0.01  0.00    0.00 -0.00 -0.00   
     22   CL               0.00 -0.00 -0.00   -0.00  0.00 -0.00    0.00 -0.00  0.00   
     23   H                0.00  0.00  0.00   -0.00  0.00  0.00   -0.00 -0.00 -0.00   
     24   H               -0.00  0.00  0.00   -0.00  0.00  0.00   -0.00  0.00  0.00   
     25   H               -0.03 -0.01  0.00   -0.00  0.00 -0.00   -0.03 -0.01  0.00   
     26   H                0.01 -0.01 -0.01    0.00 -0.01 -0.01    0.01 -0.02 -0.02   
     27   H               -0.00 -0.03  0.02   -0.00 -0.01  0.01   -0.00 -0.05  0.02   

  Vibration                       76                  77                  78          
  Freq [cm^-1]                3201.6502           3216.4882           3255.0147       
  Irrep                           A                   A                   A           
  Reduced mass [u]              1.1038              1.1039              1.0893        
  Force const [mDyne/A]         6.6665              6.7289              6.8000        
  Turning point v=0 [a0]        0.1846              0.1841              0.1843        
  RMS dev v=0 [a0 u^1/2]        0.1371              0.1368              0.1360        
  Char temp [K]               4606.4618           4627.8103           4683.2414       
  ----------------------------------------------------------------------------------
      1   C                0.00  0.00 -0.00   -0.00 -0.00  0.00   -0.04 -0.05 -0.00   
      2   C               -0.00  0.00  0.00    0.00 -0.00 -0.00   -0.00  0.00  0.00   
      3   C               -0.00  0.00  0.00   -0.00  0.01  0.00   -0.00  0.02  0.01   
      4   C               -0.00 -0.00 -0.00   -0.00 -0.00 -0.00   -0.01 -0.02 -0.00   
      5   C               -0.00  0.00  0.00   -0.00  0.00 -0.00   -0.00 -0.00  0.00   
      6   C               -0.00  0.00  0.00    0.00  0.00 -0.00   -0.01  0.04  0.02   
      7   C                0.00  0.00  0.00   -0.00  0.00 -0.00    0.00 -0.00 -0.00   
      8   C                0.00  0.00  0.00   -0.00  0.00  0.00    0.00 -0.00 -0.00   
      9   C               -0.00 -0.00  0.00   -0.00 -0.00  0.00    0.00  0.00 -0.00   
     10   C                0.00 -0.00  0.00    0.00 -0.00  0.00   -0.00  0.00  0.00   
     11   C               -0.00 -0.00  0.00   -0.00 -0.00  0.00    0.00  0.00 -0.00   
     12   C                0.01 -0.09 -0.00   -0.08 -0.01  0.04    0.00  0.00 -0.00   
     13   H                0.00  0.04 -0.03    0.00  0.02 -0.01   -0.00 -0.00  0.00   
     14   H               -0.03  0.04  0.00   -0.02  0.02  0.00    0.00 -0.00  0.00   
     15   H                0.00  0.01 -0.03    0.00  0.01 -0.02   -0.00 -0.00  0.00   
     16   H               -0.00  0.01 -0.02   -0.00  0.00 -0.01    0.00 -0.00  0.00   
     17   H                0.03  0.02 -0.01    0.01  0.00 -0.00   -0.00 -0.00  0.00   
     18   H                0.00 -0.00 -0.00    0.00 -0.00 -0.01   -0.01  0.03  0.05   
     19   H                0.00  0.00 -0.00   -0.00  0.00 -0.00    0.00 -0.01  0.01   
     20   H               -0.00 -0.00 -0.00    0.00  0.00  0.00    0.44  0.58  0.04   
     21   H                0.00 -0.00 -0.00   -0.00  0.00  0.00    0.19 -0.49 -0.26   
     22   CL               0.00  0.00 -0.00    0.00  0.00  0.00    0.00  0.00 -0.00   
     23   H                0.00  0.00  0.00    0.01  0.01  0.00    0.15  0.19  0.01   
     24   H                0.00 -0.00 -0.00    0.02 -0.06 -0.03    0.07 -0.19 -0.09   
     25   H                0.13  0.02 -0.02    0.80  0.23 -0.12   -0.02 -0.00  0.00   
     26   H               -0.31  0.45  0.39    0.19 -0.32 -0.25   -0.00  0.00  0.00   
     27   H                0.02  0.62 -0.35   -0.01  0.23 -0.12    0.00 -0.00  0.00   

  Vibration                       79                  80                  81          
  Freq [cm^-1]                3257.1356           3269.5900           3271.0775       
  Irrep                           A                   A                   A           
  Reduced mass [u]              1.0893              1.0982              1.0984        
  Force const [mDyne/A]         6.8086              6.9169              6.9248        
  Turning point v=0 [a0]        0.1842              0.1831              0.1831        
  RMS dev v=0 [a0 u^1/2]        0.1359              0.1357              0.1357        
  Char temp [K]               4686.2929           4704.2120           4706.3522       
  ----------------------------------------------------------------------------------
      1   C                0.01  0.02  0.00   -0.04 -0.04 -0.00    0.01  0.01  0.00   
      2   C               -0.00 -0.00 -0.00   -0.00  0.00  0.00    0.00  0.00 -0.00   
      3   C               -0.02  0.05  0.02    0.01 -0.01 -0.01    0.02 -0.05 -0.03   
      4   C               -0.04 -0.05 -0.00   -0.01 -0.01  0.00   -0.04 -0.05 -0.00   
      5   C               -0.00  0.00  0.00    0.00  0.00  0.00   -0.00  0.00  0.00   
      6   C                0.01 -0.02 -0.01    0.03 -0.06 -0.03   -0.01  0.01  0.01   
      7   C                0.00  0.00  0.00    0.00 -0.00 -0.00   -0.00 -0.00 -0.00   
      8   C                0.00  0.00  0.00    0.00 -0.00 -0.00   -0.00  0.00  0.00   
      9   C               -0.00 -0.00  0.00    0.00  0.00 -0.00   -0.00 -0.00  0.00   
     10   C               -0.00  0.00 -0.00   -0.00 -0.00  0.00    0.00 -0.00  0.00   
     11   C                0.00  0.00 -0.00    0.00 -0.00  0.00   -0.00 -0.00  0.00   
     12   C                0.00  0.00 -0.00   -0.00 -0.00  0.00   -0.00 -0.00  0.00   
     13   H               -0.00 -0.01  0.00    0.00  0.00 -0.00    0.00  0.00 -0.00   
     14   H                0.00 -0.00 -0.00   -0.00  0.00  0.00   -0.00  0.00  0.00   
     15   H               -0.00 -0.00  0.00    0.00  0.00  0.00    0.00  0.00 -0.00   
     16   H               -0.00  0.00 -0.00    0.00 -0.00  0.00   -0.00  0.00 -0.00   
     17   H                0.00  0.00 -0.00   -0.00 -0.00  0.00    0.00  0.00 -0.00   
     18   H                0.00 -0.01 -0.02   -0.00  0.02  0.03    0.00 -0.00 -0.01   
     19   H               -0.00  0.00 -0.00    0.00 -0.00  0.00   -0.00  0.00 -0.00   
     20   H               -0.15 -0.20 -0.01    0.37  0.48  0.03   -0.08 -0.11 -0.01   
     21   H               -0.07  0.17  0.09   -0.25  0.63  0.33    0.06 -0.15 -0.08   
     22   CL               0.00 -0.00 -0.00   -0.00 -0.00  0.00    0.00 -0.00 -0.00   
     23   H                0.42  0.55  0.02    0.09  0.12  0.00    0.40  0.52  0.02   
     24   H                0.20 -0.54 -0.26   -0.05  0.14  0.07   -0.23  0.61  0.30   
     25   H               -0.04 -0.01  0.01    0.01  0.00 -0.00    0.04  0.01 -0.01   
     26   H               -0.01  0.01  0.01    0.00 -0.00 -0.00    0.01 -0.01 -0.01   
     27   H                0.00 -0.01  0.01   -0.00  0.00 -0.00   -0.00  0.01 -0.00   

  ==> Thermochemistry Components <==

  Entropy, S
    Electronic S            0.000 [cal/(mol K)]        0.000 [J/(mol K)]       0.00000000 [mEh/K] (multiplicity = 1)
    Translational S        41.679 [cal/(mol K)]      174.386 [J/(mol K)]       0.06641994 [mEh/K] (mol. weight = 193.0784 [u], P = 101325.00 [Pa])
    Rotational S           31.860 [cal/(mol K)]      133.300 [J/(mol K)]       0.05077139 [mEh/K] (symmetry no. = 1)
    Vibrational S          35.206 [cal/(mol K)]      147.302 [J/(mol K)]       0.05610425 [mEh/K]
  Total S                 108.745 [cal/(mol K)]      454.987 [J/(mol K)]       0.17329558 [mEh/K]
  Correction S              0.000 [cal/(mol K)]        0.000 [J/(mol K)]       0.00000000 [mEh/K]

  Constant volume heat capacity, Cv
    Electronic Cv           0.000 [cal/(mol K)]        0.000 [J/(mol K)]       0.00000000 [mEh/K]
    Translational Cv        2.981 [cal/(mol K)]       12.472 [J/(mol K)]       0.00475022 [mEh/K]
    Rotational Cv           2.981 [cal/(mol K)]       12.472 [J/(mol K)]       0.00475022 [mEh/K]
    Vibrational Cv         40.744 [cal/(mol K)]      170.473 [J/(mol K)]       0.06492963 [mEh/K]
  Total Cv                 46.706 [cal/(mol K)]      195.416 [J/(mol K)]       0.07443006 [mEh/K]
  Correction Cv             0.000 [cal/(mol K)]        0.000 [J/(mol K)]       0.00000000 [mEh/K]

  Constant pressure heat capacity, Cp
    Electronic Cp           0.000 [cal/(mol K)]        0.000 [J/(mol K)]       0.00000000 [mEh/K]
    Translational Cp        4.968 [cal/(mol K)]       20.786 [J/(mol K)]       0.00791703 [mEh/K]
    Rotational Cp           2.981 [cal/(mol K)]       12.472 [J/(mol K)]       0.00475022 [mEh/K]
    Vibrational Cp         40.744 [cal/(mol K)]      170.473 [J/(mol K)]       0.06492963 [mEh/K]
  Total Cp                 48.693 [cal/(mol K)]      203.731 [J/(mol K)]       0.07759688 [mEh/K]
  Correction Cp             0.000 [cal/(mol K)]        0.000 [J/(mol K)]       0.00000000 [mEh/K]

  ==> Thermochemistry Energy Analysis <==

  Raw electronic energy, E0
  Total E0, Electronic energy at well bottom at 0 [K]                 -923.63594714 [Eh]

  Zero-point energy, ZPE_vib = Sum_i nu_i / 2
    Electronic ZPE          0.000 [kcal/mol]        0.000 [kJ/mol]       0.00000000 [Eh]
    Translational ZPE       0.000 [kcal/mol]        0.000 [kJ/mol]       0.00000000 [Eh]
    Rotational ZPE          0.000 [kcal/mol]        0.000 [kJ/mol]       0.00000000 [Eh]
    Vibrational ZPE       144.379 [kcal/mol]      604.083 [kJ/mol]       0.23008297 [Eh]       50497.376 [cm^-1]
  Correction ZPE          144.379 [kcal/mol]      604.083 [kJ/mol]       0.23008297 [Eh]       50497.376 [cm^-1]
  Total ZPE, Electronic energy at 0 [K]                               -923.40586417 [Eh]

  Thermal Energy, E (includes ZPE)
    Electronic E            0.000 [kcal/mol]        0.000 [kJ/mol]       0.00000000 [Eh]
    Translational E         0.889 [kcal/mol]        3.718 [kJ/mol]       0.00141628 [Eh]
    Rotational E            0.889 [kcal/mol]        3.718 [kJ/mol]       0.00141628 [Eh]
    Vibrational E         150.129 [kcal/mol]      628.140 [kJ/mol]       0.23924605 [Eh]
  Correction E            151.907 [kcal/mol]      635.577 [kJ/mol]       0.24207861 [Eh]
  Total E, Electronic energy at  298.15 [K]                           -923.39386854 [Eh]

  Enthalpy, H_trans = E_trans + k_B * T
    Electronic H            0.000 [kcal/mol]        0.000 [kJ/mol]       0.00000000 [Eh]
    Translational H         1.481 [kcal/mol]        6.197 [kJ/mol]       0.00236046 [Eh]
    Rotational H            0.889 [kcal/mol]        3.718 [kJ/mol]       0.00141628 [Eh]
    Vibrational H         150.129 [kcal/mol]      628.140 [kJ/mol]       0.23924605 [Eh]
  Correction H            152.499 [kcal/mol]      638.056 [kJ/mol]       0.24302279 [Eh]
  Total H, Enthalpy at  298.15 [K]                                    -923.39292435 [Eh]

  Gibbs free energy, G = H - T * S
    Electronic G            0.000 [kcal/mol]        0.000 [kJ/mol]       0.00000000 [Eh]
    Translational G       -10.945 [kcal/mol]      -45.796 [kJ/mol]      -0.01744264 [Eh]
    Rotational G           -8.610 [kcal/mol]      -36.025 [kJ/mol]      -0.01372121 [Eh]
    Vibrational G         139.633 [kcal/mol]      584.222 [kJ/mol]       0.22251857 [Eh]
  Correction G            120.077 [kcal/mol]      502.402 [kJ/mol]       0.19135471 [Eh]
  Total G, Free enthalpy at  298.15 [K]                               -923.44459243 [Eh]


Properties will be evaluated at   0.000000,   0.000000,   0.000000 [a0]
OEProp: No title given, name of density matrix used for the following properties is 'DF-MP2 relaxed density'
  Mulliken Charges: (a.u.)
   Center  Symbol    Alpha    Beta     Spin     Total
       1     C     2.99226  2.99226  0.00000  0.01548
       2     C     3.01896  3.01896  0.00000 -0.03793
       3     C     2.99462  2.99462  0.00000  0.01076
       4     C     2.93484  2.93484  0.00000  0.13032
       5     C     3.08003  3.08003  0.00000 -0.16007
       6     C     2.93593  2.93593  0.00000  0.12814
       7     C     3.00263  3.00263  0.00000 -0.00527
       8     C     3.00925  3.00925  0.00000 -0.01850
       9     C     3.02467  3.02467  0.00000 -0.04935
      10     C     3.00622  3.00622  0.00000 -0.01243
      11     C     3.10446  3.10446  0.00000 -0.20891
      12     C     3.00771  3.00771  0.00000 -0.01542
      13     H     0.45179  0.45179  0.00000  0.09643
      14     H     0.45984  0.45984  0.00000  0.08032
      15     H     0.46713  0.46713  0.00000  0.06574
      16     H     0.46392  0.46392  0.00000  0.07217
      17     H     0.45880  0.45880  0.00000  0.08241
      18     H     0.45263  0.45263  0.00000  0.09474
      19     H     0.44208  0.44208  0.00000  0.11585
      20     H     0.46479  0.46479  0.00000  0.07042
      21     H     0.45770  0.45770  0.00000  0.08459
      22    CL     8.45727  8.45727  0.00000  0.08547
      23     H     0.45801  0.45801  0.00000  0.08398
      24     H     0.46375  0.46375  0.00000  0.07251
      25     H     0.47033  0.47033  0.00000  0.05934
      26     H     0.45412  0.45412  0.00000  0.09175
      27     H     0.46627  0.46627  0.00000  0.06746

   Total alpha = 51.00000, Total beta = 51.00000, Total charge =  1.00000

    Molecular point group: c1
    Full point group: C1

    Geometry (in Angstrom), charge = 1, multiplicity = 1:

       Center              X                  Y                   Z               Mass       
    ------------   -----------------  -----------------  -----------------  -----------------
         C           -0.156466026402     1.292684735091     0.645451860993    12.000000000000
         C            0.301752605398     0.099766782191    -0.005142103007    12.000000000000
         C           -0.579529605402    -1.029584367709    -0.077151997207    12.000000000000
         C           -1.853331118302    -0.964837976109     0.467421987093    12.000000000000
         C           -2.290981523402     0.236251928291     1.077125612193    12.000000000000
         C           -1.442541339202     1.366145102291     1.160579968393    12.000000000000
         C            1.596223314398     0.044213965591    -0.560796696207    12.000000000000
         C            2.677615124798     1.049331825491    -0.345778421007    12.000000000000
         C            3.959011887498     0.197991569291    -0.467110678607    12.000000000000
         C            3.614362655598    -0.730107900609    -1.637269734607    12.000000000000
         C            2.116130227598    -1.061696822409    -1.439613764507    12.000000000000
         C            1.342670016498    -1.177359853009    -2.772213845007    12.000000000000
         H            2.007255063098    -2.010171143109    -0.877016799107     1.007825032230
         H            4.236912013498    -1.634922178709    -1.682468839407     1.007825032230
         H            3.741145197098    -0.188860645109    -2.590945264207     1.007825032230
         H            4.110931668798    -0.376268772709     0.462040178293     1.007825032230
         H            4.851915945298     0.815530893991    -0.637646676207     1.007825032230
         H            2.579897705798     1.647416477191     0.569706613893     1.007825032230
         H            2.634972186498     1.740953665291    -1.215911893207     1.007825032230
         H            0.494478458398     2.167979275391     0.705668208993     1.007825032230
         H           -1.805979036502     2.279120820291     1.637863714893     1.007825032230
         CL          -3.866143834102     0.318074865491     1.733475094993    34.968852682000
         H           -2.523020574902    -1.827399251309     0.435647343193     1.007825032230
         H           -0.236717328702    -1.964846901309    -0.524722170907     1.007825032230
         H            0.292693424698    -1.470442880309    -2.632445872607     1.007825032230
         H            1.836779279198    -1.934245483109    -3.400413459107     1.007825032230
         H            1.369755066398    -0.216880741109    -3.310810263707     1.007825032230



  Variable Map:
  ----------------------------------------------------------------------------
  "CURRENT CORRELATION ENERGY"           =>      -1.767260932508
  "CURRENT DIPOLE X"                     =>       4.083555345205
  "CURRENT DIPOLE Y"                     =>       0.066326118929
  "CURRENT DIPOLE Z"                     =>      -1.558768283980
  "CURRENT ENERGY"                       =>    -923.635947144681
  "CURRENT REFERENCE ENERGY"             =>    -921.868686212173
  "CUSTOM SCS-MP2 CORRELATION ENERGY"    =>      -1.722013774400
  "CUSTOM SCS-MP2 TOTAL ENERGY"          =>    -923.590699986572
  "ENTHALPY"                             =>    -923.392924352540
  "ENTHALPY CORRECTION"                  =>       0.243022792140
  "GIBBS FREE ENERGY"                    =>    -923.444592430136
  "GIBBS FREE ENERGY CORRECTION"         =>       0.191354714544
  "HF TOTAL ENERGY"                      =>    -921.868686212173
  "MP2 CORRELATION ENERGY"               =>      -1.767260932508
  "MP2 DOUBLES ENERGY"                   =>      -1.767260932508
  "MP2 OPPOSITE-SPIN CORRELATION ENERGY" =>      -1.307223227189
  "MP2 SAME-SPIN CORRELATION ENERGY"     =>      -0.460037705319
  "MP2 SINGLES ENERGY"                   =>      -0.000000000000
  "MP2 TOTAL ENERGY"                     =>    -923.635947144681
  "NUCLEAR REPULSION ENERGY"             =>     833.789422829356
  "ONE-ELECTRON ENERGY"                  =>   -2899.305177883073
  "PCM POLARIZATION ENERGY"              =>       0.000000000000
  "PE ENERGY"                            =>       0.000000000000
  "SCF DIPOLE X"                         =>       4.083555345205
  "SCF DIPOLE Y"                         =>       0.066326118929
  "SCF DIPOLE Z"                         =>      -1.558768283980
  "SCF ITERATION ENERGY"                 =>    -921.868686212173
  "SCF ITERATIONS"                       =>      19.000000000000
  "SCF TOTAL ENERGY"                     =>    -921.868686212173
  "SCS-MP2 CORRELATION ENERGY"           =>      -1.722013774400
  "SCS-MP2 TOTAL ENERGY"                 =>    -923.590699986572
  "THERMAL ENERGY"                       =>    -923.393868537088
  "THERMAL ENERGY CORRECTION"            =>       0.242078607592
  "TWO-ELECTRON ENERGY"                  =>    1143.647068841545
  "ZERO K ENTHALPY"                      =>    -923.405864170473
  "ZPVE"                                 =>       0.230082974207



    Psi4 stopped on: Friday, 31 December 2021 12:22AM
    Psi4 wall time for execution: 4:30:51.27

*** Psi4 exiting successfully. Buy a developer a beer!
