
    -----------------------------------------------------------------------
          Psi4: An Open-Source Ab Initio Electronic Structure Package
                               Psi4 1.4 release

                         Git: Rev {HEAD} 9485035 


    D. G. A. Smith, L. A. Burns, A. C. Simmonett, R. M. Parrish,
    M. C. Schieber, R. Galvelis, P. Kraus, H. Kruse, R. Di Remigio,
    A. Alenaizan, A. M. James, S. Lehtola, J. P. Misiewicz, M. Scheurer,
    R. A. Shaw, J. B. Schriber, Y. Xie, Z. L. Glick, D. A. Sirianni,
    J. S. O'Brien, J. M. Waldrop, A. Kumar, E. G. Hohenstein,
    B. P. Pritchard, B. R. Brooks, H. F. Schaefer III, A. Yu. Sokolov,
    K. Patkowski, A. E. DePrince III, U. Bozkaya, R. A. King,
    F. A. Evangelista, J. M. Turney, T. D. Crawford, C. D. Sherrill,
    J. Chem. Phys. 152(18) 184108 (2020). https://doi.org/10.1063/5.0006002

                            Additional Code Authors
    E. T. Seidl, C. L. Janssen, E. F. Valeev, M. L. Leininger,
    J. F. Gonthier, R. M. Richard, H. R. McAlexander, M. Saitow, X. Wang,
    P. Verma, and M. H. Lechner

             Previous Authors, Complete List of Code Contributors,
                       and Citations for Specific Modules
    https://github.com/psi4/psi4/blob/master/codemeta.json
    https://github.com/psi4/psi4/graphs/contributors
    http://psicode.org/psi4manual/master/introduction.html#citing-psifour

    -----------------------------------------------------------------------


    Psi4 started on: Thursday, 10 February 2022 07:57PM

    Process ID: 2759590
    Host:       skylm004.palmetto.clemson.edu
    PSIDATADIR: /home/maxbuskirk/.conda/envs/psifour/share/psi4
    Memory:     500.0 MiB
    Threads:    1
    
  ==> Input File <==

--------------------------------------------------------------------------
memory 62 GB

molecule mol {
0 1
 C     1.511290    -0.280966    -0.092593
 C    -0.000000     0.000000     0.000000
 C    -0.605968    -1.226439    -0.664954
 C     0.319060    -1.848819    -1.451355
 C     1.653820    -1.134973    -1.365322
 C    -2.027094    -1.583009    -0.507457
 C    -2.438238    -2.928025    -0.366876
 C    -3.794208    -3.253627    -0.211477
 C    -4.766046    -2.240264    -0.182231
 C    -4.369571    -0.897483    -0.299270
 C    -3.014139    -0.572542    -0.452922
 C     0.120138    -2.993149    -2.399423
 H    -2.715369     0.476287    -0.545440
 H    -5.118805    -0.100426    -0.268581
 O    -6.099328    -2.559996    -0.025611
 H    -4.091097    -4.301038    -0.099616
 H    -1.681648    -3.717845    -0.347819
 H     1.812305    -0.886836     0.778541
 H     2.127353     0.631886    -0.103726
 H     2.509857    -1.831293    -1.328975
 H     1.794964    -0.502471    -2.264944
 H    -0.944311    -3.224044    -2.552012
 H     0.568816    -2.749556    -3.378502
 H     0.625600    -3.906462    -2.037287
 H    -0.354002     0.144380     1.034324
 H    -0.267853     0.913064    -0.567140
 C    -6.863894    -1.387208    -0.028188
 H    -7.916027    -1.639518     0.095405
 H    -6.545927    -0.744791     0.791640
 H    -6.724450    -0.865053    -0.973614
}

set scf_type df
set basis cc-pVTZ
set reference rhf

mol.update_geometry()
mol.symmetrize(1e-3)

e, wfn = optimize('CCSD', return_wfn=True)
oeprop(wfn, "MULLIKEN_CHARGES")
mol.print_out()
print_variables()
--------------------------------------------------------------------------

  Memory set to  57.742 GiB by Python driver.

Scratch directory: /scratch1/maxbuskirk/
gradient() will perform analytic gradient computation.

*** tstart() called on skylm004.palmetto.clemson.edu
*** at Thu Feb 10 19:57:35 2022

   => Loading Basis Set <=

    Name: CC-PVTZ
    Role: ORBITAL
    Keyword: BASIS
    atoms 1-12, 27            entry C          line   186 file /home/maxbuskirk/.conda/envs/psifour/share/psi4/basis/cc-pvtz.gbs 
    atoms 13-14, 16-26, 28-30 entry H          line    23 file /home/maxbuskirk/.conda/envs/psifour/share/psi4/basis/cc-pvtz.gbs 
    atoms 15                  entry O          line   262 file /home/maxbuskirk/.conda/envs/psifour/share/psi4/basis/cc-pvtz.gbs 


         ---------------------------------------------------------
                                   SCF
               by Justin Turney, Rob Parrish, Andy Simmonett
                          and Daniel G. A. Smith
                              RHF Reference
                        1 Threads,  59127 MiB Core
         ---------------------------------------------------------

  ==> Geometry <==

    Molecular point group: c1
    Full point group: C1

    Geometry (in Angstrom), charge = 0, multiplicity = 1:

       Center              X                  Y                   Z               Mass       
    ------------   -----------------  -----------------  -----------------  -----------------
         C            3.722577606396     1.354070256074     0.484348443354    12.000000000000
         C            2.211287606396     1.635036256074     0.576941443354    12.000000000000
         C            1.605319606396     0.408597256074    -0.088012556646    12.000000000000
         C            2.530347606396    -0.213782743926    -0.874413556646    12.000000000000
         C            3.865107606396     0.500063256074    -0.788380556646    12.000000000000
         C            0.184193606396     0.052027256074     0.069484443354    12.000000000000
         C           -0.226950393604    -1.292988743926     0.210065443354    12.000000000000
         C           -1.582920393604    -1.618590743926     0.365464443354    12.000000000000
         C           -2.554758393604    -0.605227743926     0.394710443354    12.000000000000
         C           -2.158283393604     0.737553256074     0.277671443354    12.000000000000
         C           -0.802851393604     1.062494256074     0.124019443354    12.000000000000
         C            2.331425606396    -1.358112743926    -1.822481556646    12.000000000000
         H           -0.504081393604     2.111323256074     0.031501443354     1.007825032230
         H           -2.907517393604     1.534610256074     0.308360443354     1.007825032230
         O           -3.888040393604    -0.924959743926     0.551330443354    15.994914619570
         H           -1.879809393604    -2.666001743926     0.477325443354     1.007825032230
         H            0.529639606396    -2.082808743926     0.229122443354     1.007825032230
         H            4.023592606396     0.748200256074     1.355482443354     1.007825032230
         H            4.338640606396     2.266922256074     0.473215443354     1.007825032230
         H            4.721144606396    -0.196256743926    -0.752033556646     1.007825032230
         H            4.006251606396     1.132565256074    -1.688002556646     1.007825032230
         H            1.266976606396    -1.589007743926    -1.975070556646     1.007825032230
         H            2.780103606396    -1.114519743926    -2.801560556646     1.007825032230
         H            2.836887606396    -2.271425743926    -1.460345556646     1.007825032230
         H            1.857285606396     1.779416256074     1.611265443354     1.007825032230
         H            1.943434606396     2.548100256074     0.009801443354     1.007825032230
         C           -4.652606393604     0.247828256074     0.548753443354    12.000000000000
         H           -5.704739393604    -0.004481743926     0.672346443354     1.007825032230
         H           -4.334639393604     0.890245256074     1.368581443354     1.007825032230
         H           -4.513162393604     0.769983256074    -0.396672556646     1.007825032230

  Running in c1 symmetry.

  Rotational constants: A =      0.06178  B =      0.01103  C =      0.00986 [cm^-1]
  Rotational constants: A =   1852.21399  B =    330.61175  C =    295.70262 [MHz]
  Nuclear repulsion =  846.802451655004802

  Charge       = 0
  Multiplicity = 1
  Electrons    = 102
  Nalpha       = 51
  Nbeta        = 51

  ==> Algorithm <==

  SCF Algorithm Type is DF.
  DIIS enabled.
  MOM disabled.
  Fractional occupation disabled.
  Guess Type is SAD.
  Energy threshold   = 1.00e-10
  Density threshold  = 1.00e-10
  Integral threshold = 1.00e-12

  ==> Primary Basis <==

  Basis Set: CC-PVTZ
    Blend: CC-PVTZ
    Number of shells: 236
    Number of basis functions: 644
    Number of Cartesian functions: 730
    Spherical Harmonics?: true
    Max angular momentum: 3

   => Loading Basis Set <=

    Name: (CC-PVTZ AUX)
    Role: JKFIT
    Keyword: DF_BASIS_SCF
    atoms 1-12, 27            entry C          line   125 file /home/maxbuskirk/.conda/envs/psifour/share/psi4/basis/cc-pvtz-jkfit.gbs 
    atoms 13-14, 16-26, 28-30 entry H          line    51 file /home/maxbuskirk/.conda/envs/psifour/share/psi4/basis/cc-pvtz-jkfit.gbs 
    atoms 15                  entry O          line   229 file /home/maxbuskirk/.conda/envs/psifour/share/psi4/basis/cc-pvtz-jkfit.gbs 

  ==> Integral Setup <==

  DFHelper Memory: AOs need 3.731 GiB; user supplied 43.306 GiB. Using in-core AOs.

  ==> MemDFJK: Density-Fitted J/K Matrices <==

    J tasked:                   Yes
    K tasked:                   Yes
    wK tasked:                   No
    OpenMP threads:               1
    Memory [MiB]:             44345
    Algorithm:                 Core
    Schwarz Cutoff:           1E-12
    Mask sparsity (%):      26.0190
    Fitting Condition:        1E-10

   => Auxiliary Basis Set <=

  Basis Set: (CC-PVTZ AUX)
    Blend: CC-PVTZ-JKFIT
    Number of shells: 510
    Number of basis functions: 1586
    Number of Cartesian functions: 1904
    Spherical Harmonics?: true
    Max angular momentum: 4

  Minimum eigenvalue in the overlap matrix is 3.1515090196E-05.
  Reciprocal condition number of the overlap matrix is 3.5337319608E-06.
    Using symmetric orthogonalization.

  ==> Pre-Iterations <==

  SCF Guess: Superposition of Atomic Densities via on-the-fly atomic UHF (no occupation information).

   -------------------------
    Irrep   Nso     Nmo    
   -------------------------
     A        644     644 
   -------------------------
    Total     644     644
   -------------------------

  ==> Iterations <==

                           Total Energy        Delta E     RMS |[F,P]|

   @DF-RHF iter SAD:  -576.28620799818361   -5.76286e+02   0.00000e+00 
   @DF-RHF iter   1:  -576.25865824191635    2.75498e-02   1.14365e-03 DIIS
   @DF-RHF iter   2:  -576.55677264633937   -2.98114e-01   5.04889e-04 DIIS
   @DF-RHF iter   3:  -576.61194769255235   -5.51750e-02   1.30037e-04 DIIS
   @DF-RHF iter   4:  -576.61730610355266   -5.35841e-03   5.40740e-05 DIIS
   @DF-RHF iter   5:  -576.61803015684734   -7.24053e-04   1.20711e-05 DIIS
   @DF-RHF iter   6:  -576.61807748673903   -4.73299e-05   4.33763e-06 DIIS
   @DF-RHF iter   7:  -576.61808320811201   -5.72137e-06   1.14244e-06 DIIS
   @DF-RHF iter   8:  -576.61808385551774   -6.47406e-07   4.45986e-07 DIIS
   @DF-RHF iter   9:  -576.61808394701620   -9.14985e-08   1.64444e-07 DIIS
   @DF-RHF iter  10:  -576.61808396323283   -1.62166e-08   6.60626e-08 DIIS
   @DF-RHF iter  11:  -576.61808396632568   -3.09285e-09   2.87590e-08 DIIS
   @DF-RHF iter  12:  -576.61808396699155   -6.65864e-10   1.37172e-08 DIIS
   @DF-RHF iter  13:  -576.61808396721176   -2.20211e-10   5.40744e-09 DIIS
   @DF-RHF iter  14:  -576.61808396724723   -3.54703e-11   2.19470e-09 DIIS
   @DF-RHF iter  15:  -576.61808396724928   -2.04636e-12   9.02921e-10 DIIS
   @DF-RHF iter  16:  -576.61808396725041   -1.13687e-12   4.37553e-10 DIIS
   @DF-RHF iter  17:  -576.61808396724996    4.54747e-13   1.97881e-10 DIIS
   @DF-RHF iter  18:  -576.61808396724894    1.02318e-12   8.65479e-11 DIIS
  Energy and wave function converged.


  ==> Post-Iterations <==

    Orbital Energies [Eh]
    ---------------------

    Doubly Occupied:                                                      

       1A    -20.584629     2A    -11.298680     3A    -11.275433  
       4A    -11.239459     5A    -11.239232     6A    -11.235929  
       7A    -11.232369     8A    -11.230656     9A    -11.228260  
      10A    -11.223987    11A    -11.222324    12A    -11.222142  
      13A    -11.221089    14A    -11.219926    15A     -1.412185  
      16A     -1.153970    17A     -1.124020    18A     -1.026042  
      19A     -1.016224    20A     -1.002534    21A     -0.957090  
      22A     -0.927526    23A     -0.896323    24A     -0.833007  
      25A     -0.804848    26A     -0.778541    27A     -0.725011  
      28A     -0.690685    29A     -0.662526    30A     -0.660226  
      31A     -0.641806    32A     -0.636681    33A     -0.624756  
      34A     -0.587281    35A     -0.580548    36A     -0.573849  
      37A     -0.564304    38A     -0.554831    39A     -0.539931  
      40A     -0.524079    41A     -0.515498    42A     -0.502278  
      43A     -0.482816    44A     -0.481131    45A     -0.476835  
      46A     -0.472012    47A     -0.460304    48A     -0.455891  
      49A     -0.351721    50A     -0.336152    51A     -0.280419  

    Virtual:                                                              

      52A      0.117695    53A      0.124460    54A      0.136297  
      55A      0.145766    56A      0.158125    57A      0.165275  
      58A      0.173962    59A      0.184211    60A      0.190394  
      61A      0.193249    62A      0.208991    63A      0.216406  
      64A      0.223556    65A      0.225497    66A      0.232487  
      67A      0.236927    68A      0.242528    69A      0.248859  
      70A      0.255011    71A      0.290530    72A      0.302101  
      73A      0.312057    74A      0.330543    75A      0.341287  
      76A      0.349717    77A      0.354425    78A      0.364615  
      79A      0.373194    80A      0.377170    81A      0.390736  
      82A      0.392529    83A      0.421526    84A      0.429250  
      85A      0.438981    86A      0.446336    87A      0.461963  
      88A      0.470463    89A      0.472453    90A      0.479235  
      91A      0.484925    92A      0.492219    93A      0.497817  
      94A      0.503278    95A      0.525553    96A      0.529925  
      97A      0.538989    98A      0.545654    99A      0.554454  
     100A      0.564754   101A      0.570524   102A      0.571767  
     103A      0.575516   104A      0.586000   105A      0.591961  
     106A      0.593478   107A      0.596212   108A      0.602509  
     109A      0.607164   110A      0.612991   111A      0.621571  
     112A      0.622304   113A      0.628355   114A      0.629608  
     115A      0.635744   116A      0.639640   117A      0.647748  
     118A      0.653739   119A      0.655243   120A      0.662441  
     121A      0.668182   122A      0.672059   123A      0.675068  
     124A      0.679876   125A      0.685062   126A      0.686117  
     127A      0.698827   128A      0.710683   129A      0.713948  
     130A      0.728393   131A      0.730520   132A      0.738678  
     133A      0.757114   134A      0.763652   135A      0.769393  
     136A      0.774284   137A      0.779941   138A      0.807002  
     139A      0.824408   140A      0.837807   141A      0.846649  
     142A      0.854510   143A      0.860603   144A      0.883602  
     145A      0.887076   146A      0.905361   147A      0.910806  
     148A      0.912670   149A      0.930010   150A      0.936412  
     151A      0.941922   152A      0.946630   153A      0.960193  
     154A      0.981881   155A      0.986308   156A      0.991238  
     157A      1.000876   158A      1.012292   159A      1.019431  
     160A      1.025308   161A      1.030685   162A      1.045095  
     163A      1.049633   164A      1.054366   165A      1.068165  
     166A      1.076885   167A      1.091931   168A      1.096214  
     169A      1.099817   170A      1.107258   171A      1.139259  
     172A      1.148545   173A      1.150637   174A      1.159052  
     175A      1.168969   176A      1.174978   177A      1.183341  
     178A      1.187826   179A      1.202551   180A      1.203241  
     181A      1.211487   182A      1.214819   183A      1.225948  
     184A      1.235486   185A      1.243035   186A      1.245884  
     187A      1.261872   188A      1.271514   189A      1.285732  
     190A      1.292488   191A      1.304603   192A      1.305764  
     193A      1.307613   194A      1.316223   195A      1.328748  
     196A      1.335458   197A      1.358446   198A      1.359864  
     199A      1.370423   200A      1.380180   201A      1.383600  
     202A      1.389261   203A      1.397186   204A      1.409698  
     205A      1.420611   206A      1.425749   207A      1.433799  
     208A      1.444759   209A      1.452119   210A      1.455632  
     211A      1.465164   212A      1.468584   213A      1.484545  
     214A      1.490958   215A      1.505044   216A      1.506573  
     217A      1.509950   218A      1.519352   219A      1.532050  
     220A      1.537835   221A      1.540931   222A      1.551235  
     223A      1.559646   224A      1.561350   225A      1.567849  
     226A      1.572170   227A      1.584641   228A      1.588903  
     229A      1.608020   230A      1.615343   231A      1.625119  
     232A      1.626520   233A      1.637348   234A      1.645530  
     235A      1.661039   236A      1.667603   237A      1.680514  
     238A      1.687991   239A      1.689479   240A      1.701232  
     241A      1.705361   242A      1.726436   243A      1.741322  
     244A      1.749202   245A      1.755630   246A      1.762736  
     247A      1.778395   248A      1.782654   249A      1.806658  
     250A      1.818400   251A      1.821735   252A      1.838733  
     253A      1.844257   254A      1.866764   255A      1.903009  
     256A      1.932139   257A      1.953977   258A      1.956566  
     259A      1.972595   260A      1.985271   261A      2.003485  
     262A      2.014359   263A      2.025848   264A      2.090016  
     265A      2.174754   266A      2.180107   267A      2.196833  
     268A      2.224587   269A      2.254942   270A      2.273570  
     271A      2.333631   272A      2.366314   273A      2.378106  
     274A      2.415304   275A      2.446081   276A      2.460680  
     277A      2.471513   278A      2.507990   279A      2.517119  
     280A      2.534239   281A      2.556365   282A      2.561136  
     283A      2.586986   284A      2.616276   285A      2.628162  
     286A      2.636939   287A      2.645199   288A      2.658441  
     289A      2.672842   290A      2.685467   291A      2.703544  
     292A      2.710533   293A      2.731830   294A      2.738630  
     295A      2.754682   296A      2.761224   297A      2.775593  
     298A      2.784789   299A      2.802385   300A      2.807128  
     301A      2.814984   302A      2.827255   303A      2.833055  
     304A      2.834616   305A      2.850154   306A      2.854369  
     307A      2.861325   308A      2.868380   309A      2.884956  
     310A      2.888273   311A      2.899233   312A      2.902813  
     313A      2.926232   314A      2.935775   315A      2.947290  
     316A      2.953784   317A      2.956288   318A      2.962679  
     319A      2.964692   320A      2.986006   321A      2.995399  
     322A      3.003172   323A      3.007951   324A      3.012135  
     325A      3.023830   326A      3.030412   327A      3.041911  
     328A      3.051979   329A      3.063545   330A      3.064239  
     331A      3.082703   332A      3.086930   333A      3.090796  
     334A      3.103739   335A      3.122039   336A      3.126097  
     337A      3.141890   338A      3.143981   339A      3.146852  
     340A      3.165518   341A      3.175134   342A      3.178942  
     343A      3.183046   344A      3.198648   345A      3.228240  
     346A      3.234109   347A      3.242521   348A      3.254306  
     349A      3.257261   350A      3.262576   351A      3.266177  
     352A      3.284285   353A      3.288056   354A      3.295335  
     355A      3.304539   356A      3.314128   357A      3.320808  
     358A      3.330040   359A      3.341191   360A      3.344563  
     361A      3.349374   362A      3.354396   363A      3.359229  
     364A      3.365519   365A      3.368134   366A      3.383073  
     367A      3.388159   368A      3.392376   369A      3.395843  
     370A      3.402064   371A      3.406839   372A      3.409204  
     373A      3.416911   374A      3.425918   375A      3.426763  
     376A      3.437994   377A      3.446131   378A      3.452993  
     379A      3.461808   380A      3.469917   381A      3.472083  
     382A      3.475159   383A      3.486169   384A      3.499061  
     385A      3.509835   386A      3.515390   387A      3.518192  
     388A      3.526397   389A      3.529204   390A      3.549286  
     391A      3.551415   392A      3.554519   393A      3.569980  
     394A      3.579909   395A      3.587993   396A      3.597780  
     397A      3.599268   398A      3.613266   399A      3.619427  
     400A      3.632313   401A      3.643587   402A      3.649392  
     403A      3.655818   404A      3.663677   405A      3.666688  
     406A      3.677313   407A      3.683010   408A      3.690802  
     409A      3.702180   410A      3.714196   411A      3.719409  
     412A      3.724681   413A      3.729367   414A      3.740227  
     415A      3.749243   416A      3.751741   417A      3.757891  
     418A      3.772779   419A      3.777768   420A      3.784362  
     421A      3.790858   422A      3.800976   423A      3.808631  
     424A      3.812851   425A      3.825206   426A      3.836637  
     427A      3.848054   428A      3.855319   429A      3.870750  
     430A      3.871290   431A      3.887706   432A      3.903612  
     433A      3.910661   434A      3.926434   435A      3.934247  
     436A      3.951289   437A      3.961558   438A      3.969237  
     439A      3.980986   440A      3.992110   441A      3.996130  
     442A      4.004004   443A      4.010752   444A      4.021272  
     445A      4.031638   446A      4.036964   447A      4.050273  
     448A      4.052549   449A      4.070523   450A      4.093025  
     451A      4.096264   452A      4.108815   453A      4.110279  
     454A      4.115829   455A      4.119587   456A      4.129468  
     457A      4.133878   458A      4.143504   459A      4.154769  
     460A      4.158335   461A      4.167308   462A      4.172630  
     463A      4.184458   464A      4.191765   465A      4.195802  
     466A      4.205991   467A      4.217234   468A      4.227657  
     469A      4.233040   470A      4.238974   471A      4.247809  
     472A      4.261679   473A      4.266276   474A      4.283705  
     475A      4.286266   476A      4.297201   477A      4.313404  
     478A      4.320505   479A      4.331218   480A      4.340882  
     481A      4.354423   482A      4.358349   483A      4.360670  
     484A      4.380336   485A      4.384067   486A      4.388211  
     487A      4.401975   488A      4.411017   489A      4.420168  
     490A      4.434423   491A      4.440134   492A      4.445932  
     493A      4.454218   494A      4.471651   495A      4.480462  
     496A      4.489778   497A      4.495576   498A      4.510330  
     499A      4.515895   500A      4.522509   501A      4.538190  
     502A      4.541999   503A      4.556243   504A      4.561104  
     505A      4.564756   506A      4.572109   507A      4.575908  
     508A      4.597332   509A      4.611911   510A      4.616833  
     511A      4.623631   512A      4.633052   513A      4.641661  
     514A      4.657497   515A      4.670280   516A      4.675245  
     517A      4.687345   518A      4.695813   519A      4.706753  
     520A      4.714983   521A      4.730842   522A      4.744271  
     523A      4.757332   524A      4.763009   525A      4.770895  
     526A      4.794031   527A      4.809939   528A      4.817027  
     529A      4.832154   530A      4.843429   531A      4.852770  
     532A      4.884777   533A      4.899331   534A      4.905969  
     535A      4.935040   536A      4.961726   537A      4.973993  
     538A      5.000048   539A      5.014844   540A      5.018320  
     541A      5.031896   542A      5.052213   543A      5.056050  
     544A      5.071884   545A      5.090057   546A      5.094102  
     547A      5.107259   548A      5.122483   549A      5.131733  
     550A      5.144272   551A      5.160049   552A      5.187345  
     553A      5.199430   554A      5.218237   555A      5.227606  
     556A      5.261845   557A      5.267076   558A      5.282426  
     559A      5.288133   560A      5.302822   561A      5.309245  
     562A      5.334744   563A      5.339309   564A      5.343632  
     565A      5.354144   566A      5.368711   567A      5.378182  
     568A      5.384123   569A      5.403421   570A      5.410136  
     571A      5.427821   572A      5.437665   573A      5.452861  
     574A      5.463014   575A      5.472402   576A      5.485284  
     577A      5.501892   578A      5.549857   579A      5.560743  
     580A      5.575587   581A      5.580013   582A      5.589041  
     583A      5.596173   584A      5.607599   585A      5.624876  
     586A      5.631653   587A      5.651618   588A      5.687557  
     589A      5.696635   590A      5.708831   591A      5.713816  
     592A      5.724993   593A      5.747885   594A      5.774175  
     595A      5.808887   596A      5.830908   597A      5.851689  
     598A      5.893384   599A      5.906070   600A      5.961010  
     601A      5.979373   602A      5.987518   603A      6.063338  
     604A      6.101102   605A      6.119260   606A      6.130796  
     607A      6.156878   608A      6.229400   609A      6.262647  
     610A      6.271134   611A      6.284353   612A      6.301316  
     613A      6.322243   614A      6.376419   615A      6.388119  
     616A      6.396971   617A      6.425425   618A      6.431988  
     619A      6.455896   620A      6.486148   621A      6.627651  
     622A      6.774868   623A      6.792572   624A      7.027059  
     625A      7.270891   626A      7.313106   627A      7.384321  
     628A      7.430476   629A      7.807456   630A      7.927231  
     631A      9.354954   632A     10.308967   633A     12.067966  
     634A     12.540073   635A     12.773097   636A     13.177055  
     637A     13.319645   638A     13.470663   639A     13.668665  
     640A     13.965467   641A     14.407439   642A     14.453846  
     643A     14.706190   644A     15.876846  

    Final Occupation by Irrep:
              A 
    DOCC [    51 ]

  @DF-RHF Final Energy:  -576.61808396724894

   => Energetics <=

    Nuclear Repulsion Energy =            846.8024516550048020
    One-Electron Energy =               -2462.8650848843908534
    Two-Electron Energy =                1039.4445492621368885
    Total Energy =                       -576.6180839672490492

Computation Completed


Properties will be evaluated at   0.000000,   0.000000,   0.000000 [a0]

Properties computed using the SCF density matrix

  Nuclear Dipole Moment: [e a0]
     X:     7.9123      Y:     3.6112      Z:    -2.3754

  Electronic Dipole Moment: [e a0]
     X:    -7.8967      Y:    -3.1146      Z:     2.2688

  Dipole Moment: [e a0]
     X:     0.0157      Y:     0.4966      Z:    -0.1066     Total:     0.5082

  Dipole Moment: [D]
     X:     0.0398      Y:     1.2623      Z:    -0.2709     Total:     1.2917


*** tstop() called on skylm004.palmetto.clemson.edu at Thu Feb 10 19:58:56 2022
Module time:
	user time   =      68.44 seconds =       1.14 minutes
	system time =       3.15 seconds =       0.05 minutes
	total time  =         81 seconds =       1.35 minutes
Total time:
	user time   =      68.44 seconds =       1.14 minutes
	system time =       3.15 seconds =       0.05 minutes
	total time  =         81 seconds =       1.35 minutes
 MINTS: Wrapper to libmints.
   by Justin Turney

   Calculation information:
      Number of threads:                 1
      Number of atoms:                  30
      Number of AO shells:             236
      Number of SO shells:             236
      Number of primitives:            492
      Number of atomic orbitals:       730
      Number of basis functions:       644

      Number of irreps:                  1
      Integral cutoff                 1.00e-12
      Number of functions per irrep: [ 644 ]

 OEINTS: Overlap, kinetic, potential, dipole, and quadrupole integrals
         stored in file 35.

      Computing two-electron integrals...done
      Computed 8368522863 non-zero two-electron integrals.
        Stored in file 33.


*** tstart() called on skylm004.palmetto.clemson.edu
*** at Thu Feb 10 21:28:51 2022


	Wfn Parameters:
	--------------------
	Wavefunction         = CCSD
	Number of irreps     = 1
	Number of MOs        = 644
	Number of active MOs = 644
	AO-Basis             = NONE
	Semicanonical        = false
	Reference            = RHF
	Print Level          = 1

	IRREP	# MOs	# FZDC	# DOCC	# SOCC	# VIRT	# FZVR
	-----	-----	------	------	------	------	------
	 A	   644	    0	    51	    0	    593	    0
	Transforming integrals...
	IWL integrals will be deleted.
	(OO|OO)...
	Presorting SO-basis two-electron integrals.
	Sorting File: SO Ints (nn|nn) nbuckets = 6
	Constructing frozen core operators
	Starting first half-transformation.
	Sorting half-transformed integrals.
	First half integral transformation complete.
	Starting second half-transformation.
	Two-electron integral transformation complete.
	(OO|OV)...
	Starting second half-transformation.
	Two-electron integral transformation complete.
	(OO|VV)...
	Starting second half-transformation.
	Two-electron integral transformation complete.
	(OV|OO)...
	Starting first half-transformation.
	Sorting half-transformed integrals.
	First half integral transformation complete.
	Starting second half-transformation.
	Two-electron integral transformation complete.
	(OV|OV)...
	Starting second half-transformation.
	Two-electron integral transformation complete.
	(OV|VV)...
	Starting second half-transformation.
	Two-electron integral transformation complete.
	(VV|OO)...
	Starting first half-transformation.
	Sorting half-transformed integrals.
	First half integral transformation complete.
	Starting second half-transformation.
	Two-electron integral transformation complete.
	(VV|OV)...
	Starting second half-transformation.
	Two-electron integral transformation complete.
	(VV|VV)...
	Starting second half-transformation.
	Two-electron integral transformation complete.
	Frozen core energy     =      0.00000000000000

	Size of irrep 0 of <ab|cd> integrals: 123657.019 (MW) / 989256.154 (MB)
	Total:                                123657.019 (MW) / 989256.154 (MB)

	Size of irrep 0 of <ia|bc> integrals:  10634.921 (MW) /  85079.366 (MB)
	Total:                                 10634.921 (MW) /  85079.366 (MB)

	Size of irrep 0 of tijab amplitudes:     914.639 (MW) /   7317.112 (MB)
	Total:                                   914.639 (MW) /   7317.112 (MB)

