
    -----------------------------------------------------------------------
          Psi4: An Open-Source Ab Initio Electronic Structure Package
                               Psi4 1.4 release

                         Git: Rev {HEAD} 9485035 


    D. G. A. Smith, L. A. Burns, A. C. Simmonett, R. M. Parrish,
    M. C. Schieber, R. Galvelis, P. Kraus, H. Kruse, R. Di Remigio,
    A. Alenaizan, A. M. James, S. Lehtola, J. P. Misiewicz, M. Scheurer,
    R. A. Shaw, J. B. Schriber, Y. Xie, Z. L. Glick, D. A. Sirianni,
    J. S. O'Brien, J. M. Waldrop, A. Kumar, E. G. Hohenstein,
    B. P. Pritchard, B. R. Brooks, H. F. Schaefer III, A. Yu. Sokolov,
    K. Patkowski, A. E. DePrince III, U. Bozkaya, R. A. King,
    F. A. Evangelista, J. M. Turney, T. D. Crawford, C. D. Sherrill,
    J. Chem. Phys. 152(18) 184108 (2020). https://doi.org/10.1063/5.0006002

                            Additional Code Authors
    E. T. Seidl, C. L. Janssen, E. F. Valeev, M. L. Leininger,
    J. F. Gonthier, R. M. Richard, H. R. McAlexander, M. Saitow, X. Wang,
    P. Verma, and M. H. Lechner

             Previous Authors, Complete List of Code Contributors,
                       and Citations for Specific Modules
    https://github.com/psi4/psi4/blob/master/codemeta.json
    https://github.com/psi4/psi4/graphs/contributors
    http://psicode.org/psi4manual/master/introduction.html#citing-psifour

    -----------------------------------------------------------------------


    Psi4 started on: Wednesday, 09 February 2022 03:53AM

    Process ID: 3568339
    Host:       skylm003.palmetto.clemson.edu
    PSIDATADIR: /home/maxbuskirk/.conda/envs/psifour/share/psi4
    Memory:     500.0 MiB
    Threads:    1
    
  ==> Input File <==

--------------------------------------------------------------------------
memory 62 GB

molecule mol {
0 1
 C     0.355130     0.111221    -1.467412
 C    -0.000000    -0.000000     0.000000
 C     0.828100     0.881905     0.953535
 C     2.091555     0.051810     1.254924
 C     2.370953    -0.722993    -0.049363
 C     0.983556    -0.988346    -0.633510
 C    -1.373576    -0.413221     0.414448
 C    -1.542792    -1.321567     1.480545
 C    -2.825059    -1.692334     1.911870
 C    -3.961673    -1.159299     1.279913
 C    -3.805653    -0.253936     0.218219
 C    -2.519836     0.117392    -0.208007
 H    -2.398432     0.829298    -1.030811
 H    -4.686419     0.165723    -0.277661
 O    -5.224199    -1.526822     1.698665
 H    -2.939181    -2.402495     2.736730
 H    -0.656700    -1.746978     1.964470
 H     0.659437    -2.015061    -0.827996
 H    -0.405740    -0.188168    -2.193765
 H     0.996446     0.943276    -1.777222
 H     2.921789    -1.659184     0.134099
 H     2.979683    -0.115336    -0.742780
 H     1.856488    -0.672951     2.054626
 H     2.945544     0.661232     1.596113
 H     0.256631     1.122533     1.863868
 H     1.092347     1.837771     0.466059
 H    -5.873437    -1.081092     1.172715
}

set scf_type df
set basis cc-pVDZ
set reference rhf

mol.update_geometry()
mol.symmetrize(1e-3)

e, wfn = optimize('CCSD', return_wfn=True)
oeprop(wfn, "MULLIKEN_CHARGES")
mol.print_out()
print_variables()
--------------------------------------------------------------------------

  Memory set to  57.742 GiB by Python driver.

Scratch directory: /scratch1/maxbuskirk/
gradient() will perform analytic gradient computation.

*** tstart() called on skylm003.palmetto.clemson.edu
*** at Wed Feb  9 03:54:00 2022

   => Loading Basis Set <=

    Name: CC-PVDZ
    Role: ORBITAL
    Keyword: BASIS
    atoms 1-12         entry C          line   138 file /home/maxbuskirk/.conda/envs/psifour/share/psi4/basis/cc-pvdz.gbs 
    atoms 13-14, 16-27 entry H          line    22 file /home/maxbuskirk/.conda/envs/psifour/share/psi4/basis/cc-pvdz.gbs 
    atoms 15           entry O          line   198 file /home/maxbuskirk/.conda/envs/psifour/share/psi4/basis/cc-pvdz.gbs 


         ---------------------------------------------------------
                                   SCF
               by Justin Turney, Rob Parrish, Andy Simmonett
                          and Daniel G. A. Smith
                              RHF Reference
                        1 Threads,  59127 MiB Core
         ---------------------------------------------------------

  ==> Geometry <==

    Molecular point group: c1
    Full point group: C1

    Geometry (in Angstrom), charge = 0, multiplicity = 1:

       Center              X                  Y                   Z               Mass       
    ------------   -----------------  -----------------  -----------------  -----------------
         C            1.501735541197     0.647962265286    -2.008527353370    12.000000000000
         C            1.146605541197     0.536741265286    -0.541115353370    12.000000000000
         C            1.974705541197     1.418646265286     0.412419646630    12.000000000000
         C            3.238160541197     0.588551265286     0.713808646630    12.000000000000
         C            3.517558541197    -0.186251734714    -0.590478353370    12.000000000000
         C            2.130161541197    -0.451604734714    -1.174625353370    12.000000000000
         C           -0.226970458803     0.123520265286    -0.126667353370    12.000000000000
         C           -0.396186458803    -0.784825734714     0.939429646630    12.000000000000
         C           -1.678453458803    -1.155592734714     1.370754646630    12.000000000000
         C           -2.815067458803    -0.622557734714     0.738797646630    12.000000000000
         C           -2.659047458803     0.282805265286    -0.322896353370    12.000000000000
         C           -1.373230458803     0.654133265286    -0.749122353370    12.000000000000
         H           -1.251826458803     1.366039265286    -1.571926353370     1.007825032230
         H           -3.539813458803     0.702464265286    -0.818776353370     1.007825032230
         O           -4.077593458803    -0.990080734714     1.157549646630    15.994914619570
         H           -1.792575458803    -1.865753734714     2.195614646630     1.007825032230
         H            0.489905541197    -1.210236734714     1.423354646630     1.007825032230
         H            1.806042541197    -1.478319734714    -1.369111353370     1.007825032230
         H            0.740865541197     0.348573265286    -2.734880353370     1.007825032230
         H            2.143051541197     1.480017265286    -2.318337353370     1.007825032230
         H            4.068394541197    -1.122442734714    -0.407016353370     1.007825032230
         H            4.126288541197     0.421405265286    -1.283895353370     1.007825032230
         H            3.003093541197    -0.136209734714     1.513510646630     1.007825032230
         H            4.092149541197     1.197973265286     1.054997646630     1.007825032230
         H            1.403236541197     1.659274265286     1.322752646630     1.007825032230
         H            2.238952541197     2.374512265286    -0.075056353370     1.007825032230
         H           -4.726831458803    -0.544350734714     0.631599646630     1.007825032230

  Running in c1 symmetry.

  Rotational constants: A =      0.07296  B =      0.01437  C =      0.01333 [cm^-1]
  Rotational constants: A =   2187.24793  B =    430.84088  C =    399.56464 [MHz]
  Nuclear repulsion =  759.887152103648532

  Charge       = 0
  Multiplicity = 1
  Electrons    = 94
  Nalpha       = 47
  Nbeta        = 47

  ==> Algorithm <==

  SCF Algorithm Type is DF.
  DIIS enabled.
  MOM disabled.
  Fractional occupation disabled.
  Guess Type is SAD.
  Energy threshold   = 1.00e-10
  Density threshold  = 1.00e-10
  Integral threshold = 1.00e-12

  ==> Primary Basis <==

  Basis Set: CC-PVDZ
    Blend: CC-PVDZ
    Number of shells: 120
    Number of basis functions: 252
    Number of Cartesian functions: 265
    Spherical Harmonics?: true
    Max angular momentum: 2

   => Loading Basis Set <=

    Name: (CC-PVDZ AUX)
    Role: JKFIT
    Keyword: DF_BASIS_SCF
    atoms 1-12         entry C          line   121 file /home/maxbuskirk/.conda/envs/psifour/share/psi4/basis/cc-pvdz-jkfit.gbs 
    atoms 13-14, 16-27 entry H          line    51 file /home/maxbuskirk/.conda/envs/psifour/share/psi4/basis/cc-pvdz-jkfit.gbs 
    atoms 15           entry O          line   221 file /home/maxbuskirk/.conda/envs/psifour/share/psi4/basis/cc-pvdz-jkfit.gbs 

  ==> Integral Setup <==

  DFHelper Memory: AOs need 0.537 GiB; user supplied 43.306 GiB. Using in-core AOs.

  ==> MemDFJK: Density-Fitted J/K Matrices <==

    J tasked:                   Yes
    K tasked:                   Yes
    wK tasked:                   No
    OpenMP threads:               1
    Memory [MiB]:             44345
    Algorithm:                 Core
    Schwarz Cutoff:           1E-12
    Mask sparsity (%):      11.5268
    Fitting Condition:        1E-10

   => Auxiliary Basis Set <=

  Basis Set: (CC-PVDZ AUX)
    Blend: CC-PVDZ-JKFIT
    Number of shells: 438
    Number of basis functions: 1232
    Number of Cartesian functions: 1403
    Spherical Harmonics?: true
    Max angular momentum: 3

  Minimum eigenvalue in the overlap matrix is 3.4254768399E-04.
  Reciprocal condition number of the overlap matrix is 4.9483708841E-05.
    Using symmetric orthogonalization.

  ==> Pre-Iterations <==

  SCF Guess: Superposition of Atomic Densities via on-the-fly atomic UHF (no occupation information).

   -------------------------
    Irrep   Nso     Nmo    
   -------------------------
     A        252     252 
   -------------------------
    Total     252     252
   -------------------------

  ==> Iterations <==

                           Total Energy        Delta E     RMS |[F,P]|

   @DF-RHF iter SAD:  -537.02447259139217   -5.37024e+02   0.00000e+00 
   @DF-RHF iter   1:  -537.16358508675398   -1.39112e-01   2.52929e-03 DIIS
   @DF-RHF iter   2:  -537.38936247731885   -2.25777e-01   1.16037e-03 DIIS
   @DF-RHF iter   3:  -537.43172776022925   -4.23653e-02   2.96229e-04 DIIS
   @DF-RHF iter   4:  -537.43558603212091   -3.85827e-03   1.19255e-04 DIIS
   @DF-RHF iter   5:  -537.43611497959341   -5.28947e-04   2.17645e-05 DIIS
   @DF-RHF iter   6:  -537.43613933900485   -2.43594e-05   8.11206e-06 DIIS
   @DF-RHF iter   7:  -537.43614266501868   -3.32601e-06   2.28838e-06 DIIS
   @DF-RHF iter   8:  -537.43614306896393   -4.03945e-07   7.47322e-07 DIIS
   @DF-RHF iter   9:  -537.43614311944816   -5.04842e-08   2.85047e-07 DIIS
   @DF-RHF iter  10:  -537.43614312671639   -7.26823e-09   1.13987e-07 DIIS
   @DF-RHF iter  11:  -537.43614312888701   -2.17062e-09   5.30945e-08 DIIS
   @DF-RHF iter  12:  -537.43614312942111   -5.34101e-10   2.39742e-08 DIIS
   @DF-RHF iter  13:  -537.43614312953980   -1.18689e-10   9.85764e-09 DIIS
   @DF-RHF iter  14:  -537.43614312955765   -1.78488e-11   2.54171e-09 DIIS
   @DF-RHF iter  15:  -537.43614312955879   -1.13687e-12   7.55048e-10 DIIS
   @DF-RHF iter  16:  -537.43614312955879    0.00000e+00   3.85710e-10 DIIS
   @DF-RHF iter  17:  -537.43614312955845    3.41061e-13   1.63360e-10 DIIS
   @DF-RHF iter  18:  -537.43614312955879   -3.41061e-13   9.05528e-11 DIIS
  Energy and wave function converged.


  ==> Post-Iterations <==

    Orbital Energies [Eh]
    ---------------------

    Doubly Occupied:                                                      

       1A    -20.584368     2A    -11.306257     3A    -11.245274  
       4A    -11.245062     5A    -11.239606     6A    -11.237364  
       7A    -11.237021     8A    -11.236265     9A    -11.231354  
      10A    -11.229927    11A    -11.227050    12A    -11.226267  
      13A    -11.225567    14A     -1.398708    15A     -1.180706  
      16A     -1.134475    17A     -1.034270    18A     -1.013424  
      19A     -1.005890    20A     -0.949773    21A     -0.843726  
      22A     -0.842899    23A     -0.811646    24A     -0.772088  
      25A     -0.740093    26A     -0.726908    27A     -0.687304  
      28A     -0.652063    29A     -0.629409    30A     -0.616242  
      31A     -0.597010    32A     -0.582932    33A     -0.580612  
      34A     -0.570361    35A     -0.562874    36A     -0.556877  
      37A     -0.539686    38A     -0.490216    39A     -0.487209  
      40A     -0.481239    41A     -0.470259    42A     -0.467318  
      43A     -0.456752    44A     -0.405202    45A     -0.384033  
      46A     -0.337430    47A     -0.299423  

    Virtual:                                                              

      48A      0.126287    49A      0.149082    50A      0.177763  
      51A      0.181749    52A      0.201009    53A      0.206891  
      54A      0.211052    55A      0.233053    56A      0.238462  
      57A      0.250330    58A      0.258604    59A      0.260405  
      60A      0.265751    61A      0.284421    62A      0.302020  
      63A      0.307790    64A      0.335414    65A      0.350344  
      66A      0.358525    67A      0.373202    68A      0.387637  
      69A      0.406864    70A      0.416486    71A      0.426789  
      72A      0.464117    73A      0.480903    74A      0.493401  
      75A      0.512590    76A      0.520760    77A      0.526387  
      78A      0.588958    79A      0.627086    80A      0.632070  
      81A      0.643081    82A      0.662182    83A      0.663849  
      84A      0.675094    85A      0.682377    86A      0.690627  
      87A      0.708515    88A      0.714170    89A      0.719084  
      90A      0.725564    91A      0.738753    92A      0.746324  
      93A      0.748253    94A      0.760259    95A      0.777766  
      96A      0.791198    97A      0.809047    98A      0.817228  
      99A      0.827520   100A      0.845340   101A      0.854669  
     102A      0.860482   103A      0.868672   104A      0.870694  
     105A      0.882206   106A      0.884058   107A      0.887384  
     108A      0.896793   109A      0.900632   110A      0.904766  
     111A      0.906044   112A      0.910328   113A      0.918028  
     114A      0.921448   115A      0.937036   116A      0.946769  
     117A      0.954437   118A      0.958360   119A      0.973144  
     120A      0.981085   121A      1.003747   122A      1.027275  
     123A      1.050493   124A      1.117437   125A      1.132451  
     126A      1.145115   127A      1.146213   128A      1.179291  
     129A      1.180437   130A      1.203627   131A      1.239348  
     132A      1.250360   133A      1.264418   134A      1.284992  
     135A      1.288670   136A      1.297134   137A      1.303359  
     138A      1.327665   139A      1.347251   140A      1.355807  
     141A      1.366846   142A      1.394417   143A      1.412745  
     144A      1.427670   145A      1.458457   146A      1.462013  
     147A      1.477250   148A      1.480285   149A      1.504451  
     150A      1.521089   151A      1.573312   152A      1.606613  
     153A      1.607410   154A      1.618169   155A      1.654687  
     156A      1.681821   157A      1.702275   158A      1.724313  
     159A      1.735010   160A      1.754519   161A      1.776246  
     162A      1.788758   163A      1.789524   164A      1.810837  
     165A      1.820257   166A      1.830667   167A      1.849697  
     168A      1.864658   169A      1.871546   170A      1.875793  
     171A      1.892237   172A      1.902744   173A      1.906848  
     174A      1.916129   175A      1.923366   176A      1.930719  
     177A      1.937022   178A      1.949173   179A      1.951791  
     180A      1.958831   181A      1.973841   182A      1.978239  
     183A      1.996840   184A      2.004748   185A      2.021428  
     186A      2.027887   187A      2.038307   188A      2.041183  
     189A      2.054253   190A      2.056973   191A      2.076480  
     192A      2.080900   193A      2.093987   194A      2.113152  
     195A      2.120173   196A      2.138304   197A      2.150304  
     198A      2.189560   199A      2.199539   200A      2.208016  
     201A      2.232553   202A      2.248906   203A      2.252010  
     204A      2.265960   205A      2.270378   206A      2.290247  
     207A      2.296366   208A      2.325141   209A      2.351701  
     210A      2.360302   211A      2.376126   212A      2.380951  
     213A      2.419472   214A      2.440188   215A      2.445333  
     216A      2.456408   217A      2.467460   218A      2.476479  
     219A      2.490706   220A      2.531852   221A      2.538416  
     222A      2.563570   223A      2.595224   224A      2.610419  
     225A      2.630815   226A      2.640857   227A      2.684556  
     228A      2.727133   229A      2.751560   230A      2.774104  
     231A      2.778439   232A      2.786827   233A      2.801405  
     234A      2.833334   235A      2.855049   236A      2.915186  
     237A      2.916275   238A      2.929302   239A      2.989234  
     240A      2.994953   241A      3.014428   242A      3.055295  
     243A      3.081705   244A      3.145631   245A      3.228128  
     246A      3.255274   247A      3.260771   248A      3.338506  
     249A      3.554418   250A      3.662501   251A      3.924003  
     252A      4.194762  

    Final Occupation by Irrep:
              A 
    DOCC [    47 ]

  @DF-RHF Final Energy:  -537.43614312955879

   => Energetics <=

    Nuclear Repulsion Energy =            759.8871521036485319
    One-Electron Energy =               -2237.0857079069428437
    Two-Electron Energy =                 939.7624126737355255
    Total Energy =                       -537.4361431295587863

Computation Completed


Properties will be evaluated at   0.000000,   0.000000,   0.000000 [a0]

Properties computed using the SCF density matrix

  Nuclear Dipole Moment: [e a0]
     X:    11.9809      Y:     2.9885      Z:    -2.2792

  Electronic Dipole Moment: [e a0]
     X:   -11.9848      Y:    -2.6608      Z:     1.9055

  Dipole Moment: [e a0]
     X:    -0.0039      Y:     0.3277      Z:    -0.3737     Total:     0.4971

  Dipole Moment: [D]
     X:    -0.0099      Y:     0.8330      Z:    -0.9499     Total:     1.2635


*** tstop() called on skylm003.palmetto.clemson.edu at Wed Feb  9 03:54:19 2022
Module time:
	user time   =      17.22 seconds =       0.29 minutes
	system time =       0.80 seconds =       0.01 minutes
	total time  =         19 seconds =       0.32 minutes
Total time:
	user time   =      17.22 seconds =       0.29 minutes
	system time =       0.80 seconds =       0.01 minutes
	total time  =         19 seconds =       0.32 minutes
 MINTS: Wrapper to libmints.
   by Justin Turney

   Calculation information:
      Number of threads:                 1
      Number of atoms:                  27
      Number of AO shells:             120
      Number of SO shells:             120
      Number of primitives:            356
      Number of atomic orbitals:       265
      Number of basis functions:       252

      Number of irreps:                  1
      Integral cutoff                 1.00e-12
      Number of functions per irrep: [ 252 ]

 OEINTS: Overlap, kinetic, potential, dipole, and quadrupole integrals
         stored in file 35.

      Computing two-electron integrals...done
      Computed 319087650 non-zero two-electron integrals.
        Stored in file 33.


*** tstart() called on skylm003.palmetto.clemson.edu
*** at Wed Feb  9 03:59:14 2022


	Wfn Parameters:
	--------------------
	Wavefunction         = CCSD
	Number of irreps     = 1
	Number of MOs        = 252
	Number of active MOs = 252
	AO-Basis             = NONE
	Semicanonical        = false
	Reference            = RHF
	Print Level          = 1

	IRREP	# MOs	# FZDC	# DOCC	# SOCC	# VIRT	# FZVR
	-----	-----	------	------	------	------	------
	 A	   252	    0	    47	    0	    205	    0
	Transforming integrals...
	IWL integrals will be deleted.
	(OO|OO)...
	Presorting SO-basis two-electron integrals.
	Sorting File: SO Ints (nn|nn) nbuckets = 1
	Constructing frozen core operators
	Starting first half-transformation.
	Sorting half-transformed integrals.
	First half integral transformation complete.
	Starting second half-transformation.
	Two-electron integral transformation complete.
	(OO|OV)...
	Starting second half-transformation.
	Two-electron integral transformation complete.
	(OO|VV)...
	Starting second half-transformation.
	Two-electron integral transformation complete.
	(OV|OO)...
	Starting first half-transformation.
	Sorting half-transformed integrals.
	First half integral transformation complete.
	Starting second half-transformation.
	Two-electron integral transformation complete.
	(OV|OV)...
	Starting second half-transformation.
	Two-electron integral transformation complete.
	(OV|VV)...
	Starting second half-transformation.
	Two-electron integral transformation complete.
	(VV|OO)...
	Starting first half-transformation.
	Sorting half-transformed integrals.
	First half integral transformation complete.
	Starting second half-transformation.
	Two-electron integral transformation complete.
	(VV|OV)...
	Starting second half-transformation.
	Two-electron integral transformation complete.
	(VV|VV)...
	Starting second half-transformation.
	Two-electron integral transformation complete.
	Frozen core energy     =      0.00000000000000

	Size of irrep 0 of <ab|cd> integrals:   1766.101 (MW) /  14128.805 (MB)
	Total:                                  1766.101 (MW) /  14128.805 (MB)

	Size of irrep 0 of <ia|bc> integrals:    404.911 (MW) /   3239.287 (MB)
	Total:                                   404.911 (MW) /   3239.287 (MB)

	Size of irrep 0 of tijab amplitudes:      92.833 (MW) /    742.666 (MB)
	Total:                                    92.833 (MW) /    742.666 (MB)

	Nuclear Rep. energy          =    759.88715210364853
	SCF energy                   =   -537.43614312955879
	One-electron energy          =  -2237.08570781390472
	Two-electron energy          =    939.76170286129900
	Reference energy             =   -537.43685284895719

*** tstop() called on skylm003.palmetto.clemson.edu at Wed Feb  9 04:08:54 2022
Module time:
	user time   =     251.49 seconds =       4.19 minutes
	system time =     120.64 seconds =       2.01 minutes
	total time  =        580 seconds =       9.67 minutes
Total time:
	user time   =     457.27 seconds =       7.62 minutes
	system time =     130.86 seconds =       2.18 minutes
	total time  =        894 seconds =      14.90 minutes
            **************************
            *                        *
            *        CCENERGY        *
            *                        *
            **************************

    Nuclear Rep. energy (wfn)     =  759.887152103648532
    SCF energy          (wfn)     = -537.436143129558786
    Reference energy    (file100) = -537.436852848957187

    Input parameters:
    -----------------
    Wave function   =     CCSD
    Reference wfn   =     RHF
    Brueckner       =     No
    Memory (Mbytes) =     62000.0
    Maxiter         =     50
    R_Convergence   =     1.0e-07
    E_Convergence   =     1.0e-08
    Restart         =     Yes
    DIIS            =     Yes
    AO Basis        =     NONE
    ABCD            =     NEW
    Cache Level     =     2
    Cache Type      =     LOW
    Print Level     =     1
    Num. of threads =     1
    # Amps to Print =     10
    Print MP2 Amps? =     No
    Analyze T2 Amps =     No
    Print Pair Ener =     No
    Local CC        =     No
    SCS-MP2         =     False
    SCSN-MP2        =     False
    SCS-CCSD        =     False

MP2 correlation energy -1.8362833964858110
                Solving CC Amplitude Equations
                ------------------------------
  Iter             Energy              RMS        T1Diag      D1Diag    New D1Diag    D2Diag
  ----     ---------------------    ---------   ----------  ----------  ----------   --------
     0        -1.836283396485811    0.000e+00    0.000000    0.000000    0.000000    0.178766
     1        -1.860095736490502    1.284e-01    0.007199    0.027404    0.027404    0.167272
     2        -1.908626757503735    4.459e-02    0.007246    0.024648    0.024648    0.180708
     3        -1.919809329397683    1.895e-02    0.008328    0.032667    0.032667    0.184316
     4        -1.919876209783119    5.813e-03    0.008445    0.032903    0.032903    0.185827
     5        -1.920000518966291    2.724e-03    0.008525    0.034310    0.034310    0.186773
     6        -1.920078091444407    7.543e-04    0.008545    0.034665    0.034665    0.187012
     7        -1.920052089119484    2.736e-04    0.008548    0.034781    0.034781    0.187058
     8        -1.920044680235331    8.513e-05    0.008550    0.034835    0.034835    0.187071
     9        -1.920047845864086    3.171e-05    0.008551    0.034852    0.034852    0.187071
    10        -1.920045532231980    1.506e-05    0.008552    0.034863    0.034863    0.187070
    11        -1.920045431528562    6.044e-06    0.008552    0.034867    0.034867    0.187070
    12        -1.920045216448974    2.692e-06    0.008552    0.034869    0.034869    0.187069
    13        -1.920045169649020    1.076e-06    0.008552    0.034869    0.034869    0.187069
    14        -1.920045156469506    5.781e-07    0.008552    0.034869    0.034869    0.187069
    15        -1.920045161257631    2.913e-07    0.008552    0.034869    0.034869    0.187069
    16        -1.920045159915226    1.312e-07    0.008552    0.034869    0.034869    0.187069
    17        -1.920045159741366    5.978e-08    0.008552    0.034869    0.034869    0.187069

    Iterations converged.


    Largest TIA Amplitudes:
             32   1        -0.0246126593
             45  43        -0.0143888282
             42   1        -0.0135277764
             45   0         0.0121331258
             45  83         0.0107467228
             45  44         0.0106632188
             46  45        -0.0099504559
             32  18        -0.0087630667
             38   1        -0.0075812945
             46  63        -0.0073238495

    Largest TIjAb Amplitudes:
     45  45   0   0        -0.0848962181
     46  46   1   1        -0.0736997182
     45  46   1   0         0.0462553536
     46  45   0   1         0.0462553536
     46  46   0   0        -0.0353063038
     45  45   1   1        -0.0288994634
     32  32   1   1        -0.0157039909
     38  45   0  18        -0.0152138044
     45  38  18   0        -0.0152138044
     42  45   0  18        -0.0151323583

    SCF energy       (wfn)                    = -537.436143129558786
    Reference energy (file100)                = -537.436852848957187

    Opposite-spin MP2 correlation energy      =   -1.354039827376294
    Same-spin MP2 correlation energy          =   -0.482243569109517
    Singles MP2 correlation energy            =   -0.000000000000000
    MP2 correlation energy                    =   -1.836283396485811
      * MP2 total energy                      = -539.273136245442970

    Opposite-spin CCSD correlation energy     =   -1.487264149096605
    Same-spin CCSD correlation energy         =   -0.432781010644761
    Singles CCSD correlation energy           =    0.000000000000000
    CCSD correlation energy                   =   -1.920045159741366
      * CCSD total energy                     = -539.356898008698522


			**************************
			*                        *
			*         CCHBAR         *
			*                        *
			**************************


			**************************
			*        CCLAMBDA        *
			**************************


	Nuclear Rep. energy (wfn)     =  759.887152103648532
	Reference           (wfn)     =                    0
	SCF energy          (wfn)     = -537.436143129558786
	Reference energy    (CC_INFO) = -537.436852848957187
	CCSD energy         (CC_INFO) =   -1.920045159741366
	Total CCSD energy   (CC_INFO) = -539.356898008698522

	Input parameters:
	-----------------
	Maxiter           =     50
	Convergence       = 1.0e-07
	Restart           =     No
	Cache Level       =     2
	Model III         =     No
	DIIS              =     Yes
	AO Basis          =     No
	ABCD              =     NEW
	Local CC          =     No
	Parameters for left-handed eigenvectors:
	    Irr   Root  Ground-State?    EOM energy        R0
	  1   0     0        Yes       0.0000000000   1.0000000000
	Labels for eigenvector 1:
	LIA 0 -1, Lia 0 -1, LIJAB 0 -1, Lijab 0 -1, LIjAb 0 -1, 2LIjAb - LIjbA 0 -1
	Symmetry of left-hand state: A
	Symmetry of left-hand eigenvector: A

	          Solving Lambda Equations
	          ------------------------
	Iter     PseudoEnergy or Norm         RMS  
	----     ---------------------     --------
	   0        -1.920184683731462    0.000e+00
	   1        -1.865382079317318    3.413e-02
	   2        -1.860345936901901    7.168e-03
	   3        -1.859031036853935    3.280e-03
	   4        -1.858749693810937    1.166e-03
	   5        -1.858828672158520    6.159e-04
	   6        -1.858832632573457    2.117e-04
	   7        -1.858825249469393    8.845e-05
	   8        -1.858827516026708    3.471e-05
	   9        -1.858828254645732    1.415e-05
	  10        -1.858828225560589    5.737e-06
	  11        -1.858828258762738    2.329e-06
	  12        -1.858828142571179    1.036e-06
	  13        -1.858828120319505    4.935e-07
	  14        -1.858828116126596    2.599e-07
	  15        -1.858828113447044    1.347e-07
	  16        -1.858828114576760    6.551e-08

	Largest LIA Amplitudes:
	         32   1        -0.0171004842
	         45  43        -0.0114045027
	         45   0         0.0094633355
	         42   1        -0.0089685139
	         45  83         0.0086780788
	         45  44         0.0084550801
	         46  45        -0.0075178805
	         32  18        -0.0060160451
	         46  63        -0.0054861627
	         45  45        -0.0051468066

	Largest LIjAb Amplitudes:
	 45  45   0   0        -0.0800211529
	 46  46   1   1        -0.0690563303
	 45  46   1   0         0.0438151895
	 46  45   0   1         0.0438151895
	 46  46   0   0        -0.0312275045
	 45  45   1   1        -0.0259609350
	 32  32  86  86        -0.0149545440
	 38  45   0  18        -0.0144525540
	 45  38  18   0        -0.0144525540
	 42  45   0  18        -0.0143395004

	Iterations converged.

	Overlap <L|e^T> =        0.29506969683

			**************************
			*                        *
			*        CCDENSITY       *
			*                        *
			**************************


	Input parameters:
	-----------------
	Wave function    =   CCSD
	Reference wfn    =   RHF
	Dertype          = 1
	Tolerance        = 1.0e-14
	Cache Level      = 2
	AO Basis         = No
	OPDM Only        = No
	Relax OPDM       = Yes
	Compute Xi       = No
	Use Zeta         = No
	Xi connected     = Yes
	Compute NO       = No

	Nuclear Rep. energy (wfn)     =  759.887152103648532
	SCF energy          (wfn)     = -537.436143129558786
	Reference energy    (file100) = -537.436852848957187
	CCSD energy         (CC_INFO) =   -1.920045159741366
	Total CCSD energy   (CC_INFO) = -539.356898008698522
	Number of States = 1

	Ground?  State     EOM Energy       R0
	  Yes     0  A    0.0000000000   1.00000000

	Virial Theorem Data:
	--------------------
	Kinetic energy (ref)   =  536.628595342441486
	Kinetic energy (corr)  =    1.814536817758520
	Kinetic energy (total) =  538.443132160199980
	-V/T (ref)             =    2.001506176736631
	-V/T (corr)            =    2.058146156611570
	-V/T (total)           =    2.001697051729182
    Molecular point group: c1
    Full point group: C1

    Geometry (in Bohr), charge = 0, multiplicity = 1:

       Center              X                  Y                   Z       
    ------------   -----------------  -----------------  -----------------
         C            2.837868885728     1.224471221021    -3.795566613359
         C            2.166770446794     1.014293991621    -1.022559820149
         C            3.731652651286     2.680852910293     0.779360180890
         C            6.119236573126     1.112200702181     1.348902848115
         C            6.647222273127    -0.351964769002    -1.115842370880
         C            4.025421915845    -0.853409265570    -2.219720217887
         C           -0.428912005708     0.233419472334    -0.239366606905
         C           -0.748683901753    -1.483105694822     1.775264746267
         C           -3.171817351466    -2.183753781179     2.590350867330
         C           -5.319706521827    -1.176463615896     1.396125214264
         C           -5.024871451733     0.534424498227    -0.610185674777
         C           -2.595029474275     1.236132720941    -1.415636082327
         H           -2.365609163740     2.581440088011    -2.970510297258
         H           -6.689277972348     1.327465074311    -1.547263065869
         O           -7.705534888097    -1.870981430702     2.187451808752
         H           -3.387476676355    -3.525763576160     4.149110359176
         H            0.925787300206    -2.287015975579     2.689750461529
         H            3.412925773787    -2.793619424470    -2.587245493123
         H            1.400032968651     0.658708006046    -5.168174853764
         H            4.049780485602     2.796827292339    -4.381022664287
         H            7.688151453169    -2.121109360120    -0.769149436451
         H            7.797555257477     0.796340539216    -2.426210591616
         H            5.675024321993    -0.257399094232     2.860120610096
         H            7.733041897280     2.263841377010     1.993656615134
         H            2.651732752096     3.135573928410     2.499640233856
         H            4.231007110759     4.487177862930    -0.141835951844
         H           -8.932416898337    -1.028673804802     1.193550353068

	Presorting MO-basis TPDM.
	Sorting File: MO TPDM (AA|AA) nbuckets = 1
	Starting first half-transformation.
	Sorting half-transformed TPDM.
	First half integral transformation complete.


  -Total gradient:
     Atom            X                  Y                   Z
    ------   -----------------  -----------------  -----------------
       1       -0.000315277171    -0.000130611934     0.000228884053
       2       -0.003595799029     0.000913889789     0.002467837542
       3        0.000573602228    -0.001505448030    -0.000849804830
       4       -0.001079522597    -0.000788228643    -0.000573783725
       5       -0.001866229380     0.001039793278     0.000158930770
       6        0.003043447413    -0.000393497039     0.000325259372
       7        0.003441898690    -0.000175534409     0.000392415489
       8        0.005711858532    -0.002654965916     0.003533097164
       9       -0.000380788864     0.003351207532    -0.003812665414
      10        0.012847978681    -0.004576606464     0.005447992135
      11       -0.005842108659    -0.000843459899     0.000868526460
      12       -0.001784971420     0.002544559299    -0.003375275386
      13        0.000811283434    -0.000032615599     0.000096681965
      14        0.001478488488    -0.000314579786     0.000410889969
      15       -0.022954475710     0.014763020164    -0.017487198665
      16        0.002458523554    -0.000286669371     0.000364375427
      17        0.000952401560     0.000475972019    -0.000744872793
      18       -0.000479715992     0.000700726850     0.000147662659
      19        0.000236226946    -0.000206091712     0.000921604411
      20       -0.000044253828    -0.000633715882     0.000957702996
      21       -0.000823020879     0.000812268303    -0.000196941586
      22       -0.000869861742    -0.000358201341     0.000638440477
      23       -0.000024055712     0.000795088562    -0.001217478487
      24       -0.000720054472    -0.000380524014    -0.000374508419
      25        0.000046269240    -0.000509444077    -0.000795320392
      26       -0.000269751408    -0.001015476976     0.000015511010
      27        0.009447908103    -0.010590854704     0.012452037800


			-----------------------------------------
			 OPTKING 2.0: for geometry optimizations 
			  - R.A. King,  Bethel University        
			-----------------------------------------

	Internal coordinates to be generated automatically.
	Detected frag 1 with atoms:  1 2 3 4 5 6 7 8 9 10 11 12 13 14 15 16 17 18 19 20
	 21 22 23 24 25 26 27
	---Fragment 1 Bond Connectivity---
	 1 : 2 6 19 20
	 2 : 1 3 6 7
	 3 : 2 4 25 26
	 4 : 3 5 23 24
	 5 : 4 6 21 22
	 6 : 1 2 5 18
	 7 : 2 8 12
	 8 : 7 9 17
	 9 : 8 10 16
	 10 : 9 11 15
	 11 : 10 12 14
	 12 : 7 11 13
	 13 : 12
	 14 : 11
	 15 : 10 27
	 16 : 9
	 17 : 8
	 18 : 6
	 19 : 1
	 20 : 1
	 21 : 5
	 22 : 5
	 23 : 4
	 24 : 4
	 25 : 3
	 26 : 3
	 27 : 15

	---Fragment 1 Geometry and Gradient---
	 C           2.8378688857        1.2244712210       -3.7955666134
	 C           2.1667704468        1.0142939916       -1.0225598201
	 C           3.7316526513        2.6808529103        0.7793601809
	 C           6.1192365731        1.1122007022        1.3489028481
	 C           6.6472222731       -0.3519647690       -1.1158423709
	 C           4.0254219158       -0.8534092656       -2.2197202179
	 C          -0.4289120057        0.2334194723       -0.2393666069
	 C          -0.7486839018       -1.4831056948        1.7752647463
	 C          -3.1718173515       -2.1837537812        2.5903508673
	 C          -5.3197065218       -1.1764636159        1.3961252143
	 C          -5.0248714517        0.5344244982       -0.6101856748
	 C          -2.5950294743        1.2361327209       -1.4156360823
	 H          -2.3656091637        2.5814400880       -2.9705102973
	 H          -6.6892779723        1.3274650743       -1.5472630659
	 O          -7.7055348881       -1.8709814307        2.1874518088
	 H          -3.3874766764       -3.5257635762        4.1491103592
	 H           0.9257873002       -2.2870159756        2.6897504615
	 H           3.4129257738       -2.7936194245       -2.5872454931
	 H           1.4000329687        0.6587080060       -5.1681748538
	 H           4.0497804856        2.7968272923       -4.3810226643
	 H           7.6881514532       -2.1211093601       -0.7691494365
	 H           7.7975552575        0.7963405392       -2.4262105916
	 H           5.6750243220       -0.2573990942        2.8601206101
	 H           7.7330418973        2.2638413770        1.9936566151
	 H           2.6517327521        3.1355739284        2.4996402339
	 H           4.2310071108        4.4871778629       -0.1418359518
	 H          -8.9324168983       -1.0286738048        1.1935503531
	            -0.0003152772       -0.0001306119        0.0002288841
	            -0.0035957990        0.0009138898        0.0024678375
	             0.0005736022       -0.0015054480       -0.0008498048
	            -0.0010795226       -0.0007882286       -0.0005737837
	            -0.0018662294        0.0010397933        0.0001589308
	             0.0030434474       -0.0003934970        0.0003252594
	             0.0034418987       -0.0001755344        0.0003924155
	             0.0057118585       -0.0026549659        0.0035330972
	            -0.0003807889        0.0033512075       -0.0038126654
	             0.0128479787       -0.0045766065        0.0054479921
	            -0.0058421087       -0.0008434599        0.0008685265
	            -0.0017849714        0.0025445593       -0.0033752754
	             0.0008112834       -0.0000326156        0.0000966820
	             0.0014784885       -0.0003145798        0.0004108900
	            -0.0229544757        0.0147630202       -0.0174871987
	             0.0024585236       -0.0002866694        0.0003643754
	             0.0009524016        0.0004759720       -0.0007448728
	            -0.0004797160        0.0007007269        0.0001476627
	             0.0002362269       -0.0002060917        0.0009216044
	            -0.0000442538       -0.0006337159        0.0009577030
	            -0.0008230209        0.0008122683       -0.0001969416
	            -0.0008698617       -0.0003582013        0.0006384405
	            -0.0000240557        0.0007950886       -0.0012174785
	            -0.0007200545       -0.0003805240       -0.0003745084
	             0.0000462692       -0.0005094441       -0.0007953204
	            -0.0002697514       -0.0010154770        0.0000155110
	             0.0094479081       -0.0105908547        0.0124520378

	Previous optimization step data not found.  Starting new optimization.

	---Fragment 1 Intrafragment Coordinates---
	 - Coordinate -           - BOHR/RAD -       - ANG/DEG -
	 R(1,2)           =         2.860789	       1.513864
	 R(1,6)           =         2.865512	       1.516364
	 R(1,19)          =         2.066764	       1.093684
	 R(1,20)          =         2.069732	       1.095255
	 R(2,3)           =         2.910875	       1.540368
	 R(2,6)           =         2.894148	       1.531517
	 R(2,7)           =         2.821476	       1.493061
	 R(3,4)           =         2.913006	       1.541497
	 R(3,25)          =         2.081433	       1.101447
	 R(3,26)          =         2.088245	       1.105052
	 R(4,5)           =         2.915050	       1.542578
	 R(4,23)          =         2.087321	       1.104562
	 R(4,24)          =         2.084790	       1.103224
	 R(5,6)           =         2.888569	       1.528565
	 R(5,21)          =         2.081731	       1.101604
	 R(5,22)          =         2.087806	       1.104820
	 R(6,18)          =         2.067521	       1.094085
	 R(7,8)           =         2.665981	       1.410776
	 R(7,12)          =         2.661035	       1.408159
	 R(8,9)           =         2.650820	       1.402754
	 R(8,17)          =         2.070365	       1.095590
	 R(9,10)          =         2.655981	       1.405485
	 R(9,16)          =         2.068147	       1.094416
	 R(10,11)         =         2.653177	       1.404001
	 R(10,15)         =         2.607821	       1.379999
	 R(11,12)         =         2.654294	       1.404592
	 R(11,14)         =         2.068158	       1.094422
	 R(12,13)         =         2.068845	       1.094786
	 R(15,27)         =         1.789570	       0.947000
	 B(1,2,3)         =         2.017351	     115.585685
	 B(1,2,6)         =         1.042344	      59.721936
	 B(1,2,7)         =         2.100422	     120.345328
	 B(1,6,2)         =         1.039528	      59.560564
	 B(1,6,5)         =         2.049282	     117.415187
	 B(1,6,18)        =         2.048738	     117.384025
	 B(2,1,6)         =         1.059720	      60.717500
	 B(2,1,19)        =         2.049292	     117.415782
	 B(2,1,20)        =         2.057096	     117.862942
	 B(2,3,4)         =         1.826944	     104.676198
	 B(2,3,25)        =         1.936680	     110.963570
	 B(2,3,26)        =         1.929130	     110.530986
	 B(2,6,5)         =         1.888930	     108.227717
	 B(2,6,18)        =         2.081600	     119.266883
	 B(2,7,8)         =         2.092441	     119.888038
	 B(2,7,12)        =         2.119852	     121.458574
	 B(3,2,6)         =         1.854886	     106.277162
	 B(3,2,7)         =         2.072817	     118.763664
	 B(3,4,5)         =         1.827213	     104.691617
	 B(3,4,23)        =         1.897014	     108.690913
	 B(3,4,24)        =         1.979545	     113.419580
	 B(4,3,25)        =         1.962002	     112.414409
	 B(4,3,26)        =         1.934839	     110.858094
	 B(4,5,6)         =         1.819262	     104.236043
	 B(4,5,21)        =         1.956931	     112.123910
	 B(4,5,22)        =         1.932871	     110.745342
	 B(5,4,23)        =         1.897723	     108.731493
	 B(5,4,24)        =         1.980944	     113.499740
	 B(5,6,18)        =         2.094079	     119.981893
	 B(6,1,19)        =         2.043221	     117.067911
	 B(6,1,20)        =         2.053042	     117.630648
	 B(6,2,7)         =         2.125903	     121.805252
	 B(6,5,21)        =         1.949769	     111.713517
	 B(6,5,22)        =         1.934481	     110.837597
	 B(7,8,9)         =         2.108523	     120.809467
	 B(7,8,17)        =         2.079202	     119.129487
	 B(7,12,11)       =         2.107639	     120.758819
	 B(7,12,13)       =         2.079425	     119.142292
	 B(8,7,12)        =         2.070330	     118.621159
	 B(8,9,10)        =         2.095249	     120.048921
	 B(8,9,16)        =         2.092759	     119.906259
	 B(9,8,17)        =         2.095393	     120.057181
	 B(9,10,11)       =         2.088291	     119.650243
	 B(9,10,15)       =         2.097186	     120.159930
	 B(10,9,16)       =         2.095155	     120.043517
	 B(10,11,12)      =         2.096327	     120.110679
	 B(10,11,14)      =         2.094932	     120.030779
	 B(10,15,27)      =         1.910634	     109.471290
	 B(11,10,15)      =         2.097704	     120.189603
	 B(11,12,13)      =         2.096116	     120.098614
	 B(12,11,14)      =         2.091924	     119.858405
	 B(19,1,20)       =         2.012474	     115.306264
	 B(21,5,22)       =         1.871758	     107.243849
	 B(23,4,24)       =         1.878938	     107.655190
	 B(25,3,26)       =         1.875161	     107.438837
	 D(1,2,3,4)       =        -1.487484	     -85.226572
	 D(1,2,3,25)      =         2.675187	     153.276932
	 D(1,2,3,26)      =         0.596675	      34.186976
	 D(1,2,6,5)       =         1.948453	     111.638142
	 D(1,2,6,18)      =        -1.856921	    -106.393716
	 D(1,2,7,8)       =         2.408854	     138.017151
	 D(1,2,7,12)      =        -0.769280	     -44.076485
	 D(1,6,2,3)       =        -1.928884	    -110.516925
	 D(1,6,2,7)       =         1.903190	     109.044759
	 D(1,6,5,4)       =         1.468895	      84.161501
	 D(1,6,5,21)      =        -2.697521	    -154.556588
	 D(1,6,5,22)      =        -0.611214	     -35.019998
	 D(2,1,6,5)       =        -1.674893	     -95.964306
	 D(2,1,6,18)      =         1.911561	     109.524357
	 D(2,3,4,5)       =         0.589407	      33.770540
	 D(2,3,4,23)      =        -1.436065	     -82.280465
	 D(2,3,4,24)      =         2.757968	     158.019943
	 D(2,6,1,19)      =        -1.882068	    -107.834530
	 D(2,6,1,20)      =         1.887309	     108.134828
	 D(2,6,5,4)       =         0.342659	      19.632931
	 D(2,6,5,21)      =         2.459428	     140.914841
	 D(2,6,5,22)      =        -1.737450	     -99.548568
	 D(2,7,8,9)       =         3.108309	     178.092997
	 D(2,7,8,17)      =        -0.045760	      -2.621861
	 D(2,7,12,11)     =        -3.110817	    -178.236678
	 D(2,7,12,13)     =         0.027453	       1.572949
	 D(3,2,1,6)       =         1.651177	      94.605460
	 D(3,2,1,19)      =        -2.759824	    -158.126276
	 D(3,2,1,20)      =        -0.229547	     -13.152074
	 D(3,2,6,5)       =         0.019569	       1.121217
	 D(3,2,6,18)      =         2.497380	     143.089359
	 D(3,2,7,8)       =        -1.201325	     -68.830845
	 D(3,2,7,12)      =         1.903727	     109.075519
	 D(3,4,5,6)       =        -0.573602	     -32.864999
	 D(3,4,5,21)      =        -2.685602	    -153.873654
	 D(3,4,5,22)      =         1.507600	      86.379143
	 D(4,3,2,6)       =        -0.375127	     -21.493186
	 D(4,3,2,7)       =         2.100956	     120.375901
	 D(4,5,6,18)      =        -2.129570	    -122.015351
	 D(5,4,3,25)      =         2.693170	     154.307289
	 D(5,4,3,26)      =        -1.490910	     -85.422842
	 D(5,6,1,19)      =         2.726225	     156.201164
	 D(5,6,1,20)      =         0.212416	      12.170522
	 D(5,6,2,7)       =        -2.431542	    -139.317099
	 D(6,1,2,7)       =        -1.944837	    -111.430967
	 D(6,2,1,19)      =         1.872184	     107.268264
	 D(6,2,1,20)      =        -1.880724	    -107.757534
	 D(6,2,3,25)      =        -2.495641	    -142.989682
	 D(6,2,3,26)      =         1.709033	      97.920361
	 D(6,2,7,8)       =         1.168456	      66.947624
	 D(6,2,7,12)      =        -2.009677	    -115.146011
	 D(6,5,4,23)      =         1.451379	      83.157872
	 D(6,5,4,24)      =        -2.741271	    -157.063259
	 D(7,2,1,19)      =        -0.072653	      -4.162703
	 D(7,2,1,20)      =         2.457624	     140.811498
	 D(7,2,3,25)      =        -0.019558	      -1.120595
	 D(7,2,3,26)      =        -2.098070	    -120.210552
	 D(7,2,6,18)      =         0.046269	       2.651043
	 D(7,8,9,10)      =         0.001304	       0.074700
	 D(7,8,9,16)      =         3.135653	     179.659684
	 D(7,12,11,10)    =         0.004887	       0.280010
	 D(7,12,11,14)    =        -3.139052	    -179.854428
	 D(8,7,12,11)     =        -0.005315	      -0.304531
	 D(8,7,12,13)     =         3.132955	     179.505096
	 D(8,9,10,11)     =        -0.001796	      -0.102888
	 D(8,9,10,15)     =         3.136800	     179.725380
	 D(9,8,7,12)      =         0.002225	       0.127485
	 D(9,10,11,12)    =        -0.001268	      -0.072650
	 D(9,10,11,14)    =        -3.140510	    -179.937978
	 D(9,10,15,27)    =         3.141593	     180.000000
	 D(10,9,8,17)     =        -3.127697	    -179.203838
	 D(10,11,12,13)   =        -3.133351	    -179.527802
	 D(11,10,9,16)    =        -3.136135	    -179.687298
	 D(11,10,15,27)   =        -0.003014	      -0.172692
	 D(12,7,8,17)     =         3.131341	     179.412627
	 D(12,11,10,15)   =        -3.139862	    -179.900866
	 D(13,12,11,14)   =         0.005895	       0.337760
	 D(14,11,10,15)   =         0.004081	       0.233806
	 D(15,10,9,16)    =         0.002460	       0.140969
	 D(16,9,8,17)     =         0.006652	       0.381147
	 D(18,6,1,19)     =         0.029493	       1.689827
	 D(18,6,1,20)     =        -2.484316	    -142.340815
	 D(18,6,5,21)     =        -0.012801	      -0.733441
	 D(18,6,5,22)     =         2.073506	     118.803150
	 D(21,5,4,23)     =        -0.660621	     -37.850783
	 D(21,5,4,24)     =         1.429915	      81.928087
	 D(22,5,4,23)     =        -2.750604	    -157.597986
	 D(22,5,4,24)     =        -0.660068	     -37.819116
	 D(23,4,3,25)     =         0.667698	      38.256283
	 D(23,4,3,26)     =         2.766803	     158.526152
	 D(24,4,3,25)     =        -1.421454	     -81.443309
	 D(24,4,3,26)     =         0.677651	      38.826560

	Current energy   :      -539.3568980087

	Generating empirical Hessian (Schlegel '84) for each fragment.
	Taking RFO optimization step.
	Going to follow RFO solution 1.
	Using RFO vector 1.
	Norm of target step-size    0.12865
	Projected energy change by RFO approximation:        -0.0023368065

	Back-transformation to cartesian coordinates...
	Could not converge backtransformation.
	Using first guess instead.

	--- Internal Coordinate Step in ANG or DEG, aJ/ANG or AJ/DEG ---
	 ---------------------------------------------------------------------------
	   Coordinate                Previous        Force       Change         New 
	   ----------                --------       ------       ------       ------
	    1 R(1,2)          =      1.513864     0.009951     0.002509     1.516374
	    2 R(1,6)          =      1.516364     0.008567     0.001519     1.517883
	    3 R(1,19)         =      1.093684     0.005932     0.001114     1.094799
	    4 R(1,20)         =      1.095255     0.006412     0.001203     1.096458
	    5 R(2,3)          =      1.540368     0.028821     0.006291     1.546660
	    6 R(2,6)          =      1.531517     0.004343     0.000237     1.531755
	    7 R(2,7)          =      1.493061     0.054926     0.010584     1.503645
	    8 R(3,4)          =      1.541497     0.018419     0.004600     1.546096
	    9 R(3,25)         =      1.101447     0.006530     0.001252     1.102699
	   10 R(3,26)         =      1.105052     0.007825     0.001534     1.106586
	   11 R(4,5)          =      1.542578     0.016872     0.004355     1.546933
	   12 R(4,23)         =      1.104562     0.011518     0.002390     1.106952
	   13 R(4,24)         =      1.103224     0.007278     0.001513     1.104736
	   14 R(5,6)          =      1.528565     0.027792     0.005842     1.534407
	   15 R(5,21)         =      1.101604     0.009348     0.001826     1.103430
	   16 R(5,22)         =      1.104820     0.008873     0.001773     1.106593
	   17 R(6,18)         =      1.094085     0.004463     0.000845     1.094930
	   18 R(7,8)          =      1.410776     0.002640     0.000460     1.411236
	   19 R(7,12)         =      1.408159    -0.019846    -0.002808     1.405351
	   20 R(8,9)          =      1.402754    -0.011931    -0.001763     1.400990
	   21 R(8,17)         =      1.095590    -0.002113    -0.000262     1.095328
	   22 R(9,10)         =      1.405485    -0.028794    -0.003998     1.401487
	   23 R(9,16)         =      1.094416    -0.001683    -0.000103     1.094313
	   24 R(10,11)        =      1.404001     0.009117     0.001470     1.405471
	   25 R(10,15)        =      1.379999    -0.080062    -0.009414     1.370586
	   26 R(11,12)        =      1.404592    -0.002494    -0.000256     1.404336
	   27 R(11,14)        =      1.094422     0.012330     0.002342     1.096764
	   28 R(12,13)        =      1.094786     0.000032     0.000046     1.094832
	   29 R(15,27)        =      0.947000     0.151409     0.016677     0.963677
	   30 B(1,2,3)        =    115.585685    -0.000008    -0.146689   115.438996
	   31 B(1,2,6)        =     59.721936     0.000006     0.007387    59.729323
	   32 B(1,2,7)        =    120.345328    -0.000004    -0.118445   120.226882
	   33 B(1,6,2)        =     59.560564     0.000013     0.071279    59.631843
	   34 B(1,6,5)        =    117.415187     0.000013     0.020808   117.435995
	   35 B(1,6,18)       =    117.384025     0.000009     0.039013   117.423038
	   36 B(2,1,6)        =     60.717500    -0.000019    -0.078666    60.638834
	   37 B(2,1,19)       =    117.415782     0.000015     0.138677   117.554459
	   38 B(2,1,20)       =    117.862942     0.000029     0.188325   118.051267
	   39 B(2,3,4)        =    104.676198     0.000005     0.149782   104.825980
	   40 B(2,3,25)       =    110.963570     0.000025     0.259541   111.223111
	   41 B(2,3,26)       =    110.530986     0.000006     0.048445   110.579431
	   42 B(2,6,5)        =    108.227717     0.000023     0.205758   108.433475
	   43 B(2,6,18)       =    119.266883     0.000006     0.188089   119.454972
	   44 B(2,7,8)        =    119.888038     0.000158     0.490958   120.378996
	   45 B(2,7,12)       =    121.458574     0.000088     0.276665   121.735239
	   46 B(3,2,6)        =    106.277162    -0.000006     0.013989   106.291151
	   47 B(3,2,7)        =    118.763664     0.000006     0.066594   118.830257
	   48 B(3,4,5)        =    104.691617    -0.000008     0.145057   104.836674
	   49 B(3,4,23)       =    108.690913     0.000001     0.001392   108.692305
	   50 B(3,4,24)       =    113.419580     0.000014     0.053985   113.473565
	   51 B(4,3,25)       =    112.414409    -0.000015    -0.078388   112.336021
	   52 B(4,3,26)       =    110.858094    -0.000006    -0.150383   110.707711
	   53 B(4,5,6)        =    104.236043    -0.000003     0.077270   104.313313
	   54 B(4,5,21)       =    112.123910    -0.000003    -0.013741   112.110169
	   55 B(4,5,22)       =    110.745342     0.000002    -0.033906   110.711436
	   56 B(5,4,23)       =    108.731493     0.000004    -0.028509   108.702984
	   57 B(5,4,24)       =    113.499740     0.000003     0.008868   113.508608
	   58 B(5,6,18)       =    119.981893    -0.000034    -0.255935   119.725959
	   59 B(6,1,19)       =    117.067911     0.000019     0.059746   117.127658
	   60 B(6,1,20)       =    117.630648     0.000022     0.163806   117.794454
	   61 B(6,2,7)        =    121.805252     0.000007     0.231818   122.037070
	   62 B(6,5,21)       =    111.713517     0.000022     0.161245   111.874761
	   63 B(6,5,22)       =    110.837597    -0.000004    -0.010557   110.827040
	   64 B(7,8,9)        =    120.809467     0.000277     0.876862   121.686329
	   65 B(7,8,17)       =    119.129487    -0.000039     0.025876   119.155362
	   66 B(7,12,11)      =    120.758819     0.000086     0.284459   121.043279
	   67 B(7,12,13)      =    119.142292     0.000022     0.157466   119.299759
	   68 B(8,7,12)       =    118.621159    -0.000246    -0.771853   117.849306
	   69 B(8,9,10)       =    120.048921    -0.000116    -0.426485   119.622436
	   70 B(8,9,16)       =    119.906259     0.000254     1.118460   121.024719
	   71 B(9,8,17)       =    120.057181    -0.000238    -0.901176   119.156005
	   72 B(9,10,11)      =    119.650243    -0.000006    -0.004659   119.645584
	   73 B(9,10,15)      =    120.159930    -0.000837    -2.513722   117.646208
	   74 B(10,9,16)      =    120.043517    -0.000138    -0.691592   119.351924
	   75 B(10,11,12)     =    120.110679     0.000006     0.041605   120.152284
	   76 B(10,11,14)     =    120.030779    -0.000039    -0.187260   119.843518
	   77 B(10,15,27)     =    109.471290    -0.000589    -2.732095   106.739196
	   78 B(11,10,15)     =    120.189603     0.000843     2.518495   122.708098
	   79 B(11,12,13)     =    120.098614    -0.000107    -0.441803   119.656811
	   80 B(12,11,14)     =    119.858405     0.000033     0.145707   120.004113
	   81 B(19,1,20)      =    115.306264    -0.000045    -0.306702   114.999562
	   82 B(21,5,22)      =    107.243849    -0.000013    -0.172304   107.071544
	   83 B(23,4,24)      =    107.655190    -0.000013    -0.176755   107.478435
	   84 B(25,3,26)      =    107.438837    -0.000014    -0.216963   107.221874
	   85 D(1,2,3,4)      =    -85.226572    -0.000001     0.408865   -84.817706
	   86 D(1,2,3,25)     =    153.276932    -0.000001     0.269405   153.546338
	   87 D(1,2,3,26)     =     34.186976    -0.000001     0.342197    34.529173
	   88 D(1,2,6,5)      =    111.638142     0.000001    -0.069763   111.568379
	   89 D(1,2,6,18)     =   -106.393716    -0.000003     0.006395  -106.387321
	   90 D(1,2,7,8)      =    138.017151     0.000001    -0.515401   137.501750
	   91 D(1,2,7,12)     =    -44.076485    -0.000001    -0.665524   -44.742008
	   92 D(1,6,2,3)      =   -110.516925     0.000001     0.176911  -110.340014
	   93 D(1,6,2,7)      =    109.044759    -0.000001    -0.237662   108.807097
	   94 D(1,6,5,4)      =     84.161501     0.000002    -0.415552    83.745950
	   95 D(1,6,5,21)     =   -154.556588     0.000004    -0.296669  -154.853257
	   96 D(1,6,5,22)     =    -35.019998     0.000003    -0.414787   -35.434785
	   97 D(2,1,6,5)      =    -95.964306    -0.000006    -0.278191   -96.242497
	   98 D(2,1,6,18)     =    109.524357     0.000002     0.234537   109.758894
	   99 D(2,3,4,5)      =     33.770540    -0.000003    -0.782130    32.988410
	  100 D(2,3,4,23)     =    -82.280465    -0.000003    -0.823291   -83.103756
	  101 D(2,3,4,24)     =    158.019943    -0.000001    -0.635542   157.384401
	  102 D(2,6,1,19)     =   -107.834530    -0.000001    -0.113128  -107.947657
	  103 D(2,6,1,20)     =    108.134828     0.000004     0.129329   108.264157
	  104 D(2,6,5,4)      =     19.632931    -0.000004    -0.584654    19.048276
	  105 D(2,6,5,21)     =    140.914841    -0.000002    -0.465771   140.449070
	  106 D(2,6,5,22)     =    -99.548568    -0.000003    -0.583890  -100.132458
	  107 D(2,7,8,9)      =    178.092997    -0.000000    -0.070298   178.022699
	  108 D(2,7,8,17)     =     -2.621861     0.000001     0.087638    -2.534224
	  109 D(2,7,12,11)    =   -178.236678    -0.000000     0.091182  -178.145496
	  110 D(2,7,12,13)    =      1.572949     0.000000     0.139508     1.712456
	  111 D(3,2,1,6)      =     94.605460    -0.000000     0.100683    94.706143
	  112 D(3,2,1,19)     =   -158.126276     0.000002     0.084415  -158.041860
	  113 D(3,2,1,20)     =    -13.152074    -0.000002     0.011579   -13.140495
	  114 D(3,2,6,5)      =      1.121217     0.000002     0.107148     1.228365
	  115 D(3,2,6,18)     =    143.089359    -0.000002     0.183306   143.272665
	  116 D(3,2,7,8)      =    -68.830845    -0.000003    -1.020620   -69.851465
	  117 D(3,2,7,12)     =    109.075519    -0.000005    -1.170743   107.904776
	  118 D(3,4,5,6)      =    -32.864999     0.000005     0.871575   -31.993424
	  119 D(3,4,5,21)     =   -153.873654    -0.000000     0.635668  -153.237986
	  120 D(3,4,5,22)     =     86.379143     0.000004     0.886551    87.265694
	  121 D(4,3,2,6)      =    -21.493186    -0.000000     0.409269   -21.083918
	  122 D(4,3,2,7)      =    120.375901     0.000002     0.886602   121.262503
	  123 D(4,5,6,18)     =   -122.015351    -0.000003    -0.860377  -122.875729
	  124 D(5,4,3,25)     =    154.307289     0.000003    -0.415160   153.892128
	  125 D(5,4,3,26)     =    -85.422842    -0.000004    -0.849519   -86.272362
	  126 D(5,6,1,19)     =    156.201164    -0.000007    -0.391319   155.809845
	  127 D(5,6,1,20)     =     12.170522    -0.000002    -0.148863    12.021659
	  128 D(5,6,2,7)      =   -139.317099     0.000000    -0.307425  -139.624524
	  129 D(6,1,2,7)      =   -111.430967    -0.000003    -0.333678  -111.764645
	  130 D(6,2,1,19)     =    107.268264     0.000002    -0.016268   107.251996
	  131 D(6,2,1,20)     =   -107.757534    -0.000002    -0.089104  -107.846638
	  132 D(6,2,3,25)     =   -142.989682    -0.000000     0.269808  -142.719874
	  133 D(6,2,3,26)     =     97.920361    -0.000001     0.342600    98.262961
	  134 D(6,2,7,8)      =     66.947624    -0.000001    -0.563947    66.383677
	  135 D(6,2,7,12)     =   -115.146011    -0.000003    -0.714070  -115.860081
	  136 D(6,5,4,23)     =     83.157872     0.000005     0.933489    84.091361
	  137 D(6,5,4,24)     =   -157.063259     0.000002     0.696101  -156.367158
	  138 D(7,2,1,19)     =     -4.162703    -0.000001    -0.349946    -4.512649
	  139 D(7,2,1,20)     =    140.811498    -0.000005    -0.422782   140.388716
	  140 D(7,2,3,25)     =     -1.120595     0.000002     0.747142    -0.373453
	  141 D(7,2,3,26)     =   -120.210552     0.000002     0.819934  -119.390618
	  142 D(7,2,6,18)     =      2.651043    -0.000004    -0.231267     2.419776
	  143 D(7,8,9,10)     =      0.074700    -0.000000    -0.055007     0.019693
	  144 D(7,8,9,16)     =    179.659684     0.000000     0.008723   179.668407
	  145 D(7,12,11,10)   =      0.280010     0.000000     0.010344     0.290354
	  146 D(7,12,11,14)   =   -179.854428     0.000000     0.039014  -179.815414
	  147 D(8,7,12,11)    =     -0.304531     0.000000    -0.030187    -0.334718
	  148 D(8,7,12,13)    =    179.505096     0.000001     0.018138   179.523234
	  149 D(8,9,10,11)    =     -0.102888     0.000000     0.031343    -0.071544
	  150 D(8,9,10,15)    =    179.725380     0.000001     0.085859   179.811239
	  151 D(9,8,7,12)     =      0.127485    -0.000000     0.053433     0.180918
	  152 D(9,10,11,12)   =     -0.072650    -0.000000    -0.008123    -0.080773
	  153 D(9,10,11,14)   =   -179.937978    -0.000000    -0.037197  -179.975175
	  154 D(9,10,15,27)   =    180.000000    -0.000000     0.010112   180.010112
	  155 D(10,9,8,17)    =   -179.203838    -0.000001    -0.219543  -179.423381
	  156 D(10,11,12,13)  =   -179.527802    -0.000000    -0.039296  -179.567097
	  157 D(11,10,9,16)   =   -179.687298    -0.000000    -0.038877  -179.726176
	  158 D(11,10,15,27)  =     -0.172692     0.000000     0.061733    -0.110959
	  159 D(12,7,8,17)    =    179.412627     0.000001     0.211369   179.623996
	  160 D(12,11,10,15)  =   -179.900866     0.000000    -0.056506  -179.957371
	  161 D(13,12,11,14)  =      0.337760    -0.000000    -0.010625     0.327135
	  162 D(14,11,10,15)  =      0.233806    -0.000000    -0.085580     0.148226
	  163 D(15,10,9,16)   =      0.140969     0.000000     0.015638     0.156608
	  164 D(16,9,8,17)    =      0.381147    -0.000001    -0.155813     0.225334
	  165 D(18,6,1,19)    =      1.689827     0.000001     0.121409     1.811236
	  166 D(18,6,1,20)    =   -142.340815     0.000006     0.363866  -141.976950
	  167 D(18,6,5,21)    =     -0.733441    -0.000002    -0.741495    -1.474935
	  168 D(18,6,5,22)    =    118.803150    -0.000003    -0.859613   117.943536
	  169 D(21,5,4,23)    =    -37.850783    -0.000000     0.697582   -37.153201
	  170 D(21,5,4,24)    =     81.928087    -0.000003     0.460194    82.388281
	  171 D(22,5,4,23)    =   -157.597986     0.000004     0.948465  -156.649521
	  172 D(22,5,4,24)    =    -37.819116     0.000001     0.711077   -37.108039
	  173 D(23,4,3,25)    =     38.256283     0.000003    -0.456321    37.799962
	  174 D(23,4,3,26)    =    158.526152    -0.000004    -0.890680   157.635472
	  175 D(24,4,3,25)    =    -81.443309     0.000004    -0.268572   -81.711881
	  176 D(24,4,3,26)    =     38.826560    -0.000003    -0.702931    38.123629
	 ---------------------------------------------------------------------------
	Successfully symmetrized geometry.

  ==> Convergence Check <==

  Measures of convergence in internal coordinates in au.
  Criteria marked as inactive (o), active & met (*), and active & unmet ( ).
  --------------------------------------------------------------------------------------------- ~
   Step     Total Energy     Delta E     MAX Force     RMS Force      MAX Disp      RMS Disp    ~
  --------------------------------------------------------------------------------------------- ~
    Convergence Criteria    1.00e-06 *    3.00e-04 *             o    1.20e-03 *             o  ~
  --------------------------------------------------------------------------------------------- ~
      1    -539.35689801   -5.39e+02      1.84e-02      2.28e-03 o    4.77e-02      9.70e-03 o  ~
  ---------------------------------------------------------------------------------------------

	Writing optimization data to binary file.
	Structure for next step:
	Cartesian Geometry (in Angstrom)
	    C     1.5098421245   0.6415525843  -2.0122531975
	    C     1.1509465649   0.5319479475  -0.5430458923
	    C     1.9787396411   1.4240890844   0.4114166540
	    C     3.2549704728   0.6046176067   0.7116074396
	    C     3.5313735392  -0.1882078127  -0.5876348610
	    C     2.1382329226  -0.4556548789  -1.1724733131
	    C    -0.2354360704   0.1205970508  -0.1311221565
	    C    -0.4236703450  -0.7953121861   0.9258851199
	    C    -1.7033228514  -1.1662610287   1.3590828692
	    C    -2.8320009274  -0.6199065536   0.7331845588
	    C    -2.6677591832   0.2950675837  -0.3209482966
	    C    -1.3793269966   0.6608099757  -0.7432455625
	    H    -1.2607793583   1.3796692341  -1.5604628308
	    H    -3.5487786529   0.7249353230  -0.8127922177
	    O    -4.0639040655  -1.0139198942   1.1866968180
	    H    -1.8367738024  -1.8816575831   2.1763464774
	    H     0.4530840492  -1.2342376607   1.4141357393
	    H     1.8196914742  -1.4849239981  -1.3674283240
	    H     0.7522836577   0.3393212832  -2.7425582581
	    H     2.1494454743   1.4750302449  -2.3260084958
	    H     4.0824557995  -1.1242880588  -0.3936763851
	    H     4.1440295993   0.4101991853  -1.2884271892
	    H     3.0327991525  -0.1128363161   1.5247759068
	    H     4.1086931984   1.2241919651   1.0398266153
	    H     1.4108874874   1.6651908002   1.3253962387
	    H     2.2354694694   2.3831178119  -0.0773425548
	    H    -4.7178808129  -0.5487395595   0.6532225677
			--------------------------
			 OPTKING Finished Execution 
			--------------------------

    Structure for next step:
    Molecular point group: c1
    Full point group: C1

    Geometry (in Angstrom), charge = 0, multiplicity = 1:

    C            1.511023903737     0.643490272522    -2.012784541696
    C            1.152128342713     0.533885635262    -0.543577230693
    C            1.979921422189     1.426026775650     0.410885319299
    C            3.256152258873     0.606555294733     0.711076106100
    C            3.532555326389    -0.186270127766    -0.588166199621
    C            2.139414704249    -0.453717195024    -1.173004654023
    C           -0.234254298082     0.122534736950    -0.131653493296
    C           -0.422488573355    -0.793374503563     0.925353787226
    C           -1.702141084822    -1.164323347575     1.358551538241
    C           -2.830819165243    -0.617968870396     0.732653225394
    C           -2.666577420431     0.297005270507    -0.321479634100
    C           -1.378145228770     0.662747663945    -0.743776901719
    H           -1.259597589987     1.381606925167    -1.560994173212
    H           -3.547596893585     0.726873011489    -0.813323557147
    O           -4.062722308214    -1.011982212502     1.186165486369
    H           -1.835592036324    -1.879719904859     2.175815149655
    H            0.454265824284    -1.232299979897     1.413604408620
    H            1.820873254684    -1.482986318289    -1.367959665608
    H            0.753465433913     0.341258970257    -2.743089605198
    H            2.150627256038     1.476967936332    -2.326539841240
    H            4.083637588830    -1.122350377576    -0.394207722954
    H            4.145211388891     0.412136872592    -1.288958530572
    H            3.033980937733    -0.110898630833     1.524244576520
    H            4.109874987823     1.226129655553     1.039295283068
    H            1.412069266236     1.667128492416     1.324864907606
    H            2.236651251430     2.385055506994    -0.077873891355
    H           -4.716699058169    -0.546801875987     0.652691233970


Scratch directory: /scratch1/maxbuskirk/
gradient() will perform analytic gradient computation.

*** tstart() called on skylm003.palmetto.clemson.edu
*** at Wed Feb  9 10:16:55 2022

   => Loading Basis Set <=

    Name: CC-PVDZ
    Role: ORBITAL
    Keyword: BASIS
    atoms 1-12         entry C          line   138 file /home/maxbuskirk/.conda/envs/psifour/share/psi4/basis/cc-pvdz.gbs 
    atoms 13-14, 16-27 entry H          line    22 file /home/maxbuskirk/.conda/envs/psifour/share/psi4/basis/cc-pvdz.gbs 
    atoms 15           entry O          line   198 file /home/maxbuskirk/.conda/envs/psifour/share/psi4/basis/cc-pvdz.gbs 


         ---------------------------------------------------------
                                   SCF
               by Justin Turney, Rob Parrish, Andy Simmonett
                          and Daniel G. A. Smith
                              RHF Reference
                        1 Threads,  59127 MiB Core
         ---------------------------------------------------------

  ==> Geometry <==

    Molecular point group: c1
    Full point group: C1

    Geometry (in Angstrom), charge = 0, multiplicity = 1:

       Center              X                  Y                   Z               Mass       
    ------------   -----------------  -----------------  -----------------  -----------------
         C            1.511023903737     0.643490272522    -2.012784541696    12.000000000000
         C            1.152128342713     0.533885635262    -0.543577230693    12.000000000000
         C            1.979921422189     1.426026775650     0.410885319299    12.000000000000
         C            3.256152258873     0.606555294733     0.711076106100    12.000000000000
         C            3.532555326389    -0.186270127766    -0.588166199621    12.000000000000
         C            2.139414704249    -0.453717195024    -1.173004654023    12.000000000000
         C           -0.234254298082     0.122534736950    -0.131653493296    12.000000000000
         C           -0.422488573355    -0.793374503563     0.925353787226    12.000000000000
         C           -1.702141084822    -1.164323347575     1.358551538241    12.000000000000
         C           -2.830819165243    -0.617968870396     0.732653225394    12.000000000000
         C           -2.666577420431     0.297005270507    -0.321479634100    12.000000000000
         C           -1.378145228770     0.662747663945    -0.743776901719    12.000000000000
         H           -1.259597589987     1.381606925167    -1.560994173212     1.007825032230
         H           -3.547596893585     0.726873011489    -0.813323557147     1.007825032230
         O           -4.062722308214    -1.011982212502     1.186165486369    15.994914619570
         H           -1.835592036324    -1.879719904859     2.175815149655     1.007825032230
         H            0.454265824284    -1.232299979897     1.413604408620     1.007825032230
         H            1.820873254684    -1.482986318289    -1.367959665608     1.007825032230
         H            0.753465433913     0.341258970257    -2.743089605198     1.007825032230
         H            2.150627256038     1.476967936332    -2.326539841240     1.007825032230
         H            4.083637588830    -1.122350377576    -0.394207722954     1.007825032230
         H            4.145211388891     0.412136872592    -1.288958530572     1.007825032230
         H            3.033980937733    -0.110898630833     1.524244576520     1.007825032230
         H            4.109874987823     1.226129655553     1.039295283068     1.007825032230
         H            1.412069266236     1.667128492416     1.324864907606     1.007825032230
         H            2.236651251430     2.385055506994    -0.077873891355     1.007825032230
         H           -4.716699058169    -0.546801875987     0.652691233970     1.007825032230

  Running in c1 symmetry.

  Rotational constants: A =      0.07273  B =      0.01427  C =      0.01326 [cm^-1]
  Rotational constants: A =   2180.49397  B =    427.77653  C =    397.41205 [MHz]
  Nuclear repulsion =  758.386110912736854

  Charge       = 0
  Multiplicity = 1
  Electrons    = 94
  Nalpha       = 47
  Nbeta        = 47

  ==> Algorithm <==

  SCF Algorithm Type is DF.
  DIIS enabled.
  MOM disabled.
  Fractional occupation disabled.
  Guess Type is READ.
  Energy threshold   = 1.00e-10
  Density threshold  = 1.00e-10
  Integral threshold = 1.00e-12

  ==> Primary Basis <==

  Basis Set: CC-PVDZ
    Blend: CC-PVDZ
    Number of shells: 120
    Number of basis functions: 252
    Number of Cartesian functions: 265
    Spherical Harmonics?: true
    Max angular momentum: 2

   => Loading Basis Set <=

    Name: (CC-PVDZ AUX)
    Role: JKFIT
    Keyword: DF_BASIS_SCF
    atoms 1-12         entry C          line   121 file /home/maxbuskirk/.conda/envs/psifour/share/psi4/basis/cc-pvdz-jkfit.gbs 
    atoms 13-14, 16-27 entry H          line    51 file /home/maxbuskirk/.conda/envs/psifour/share/psi4/basis/cc-pvdz-jkfit.gbs 
    atoms 15           entry O          line   221 file /home/maxbuskirk/.conda/envs/psifour/share/psi4/basis/cc-pvdz-jkfit.gbs 

   => Loading Basis Set <=

    Name: CC-PVDZ
    Role: ORBITAL
    Keyword: BASIS
    atoms 1-12         entry C          line   138 file /home/maxbuskirk/.conda/envs/psifour/share/psi4/basis/cc-pvdz.gbs 
    atoms 13-14, 16-27 entry H          line    22 file /home/maxbuskirk/.conda/envs/psifour/share/psi4/basis/cc-pvdz.gbs 
    atoms 15           entry O          line   198 file /home/maxbuskirk/.conda/envs/psifour/share/psi4/basis/cc-pvdz.gbs 

  Reading orbitals from file /scratch1/maxbuskirk/rOH.mol.3568339.180.npy, no projection.

  ==> Integral Setup <==

  DFHelper Memory: AOs need 0.537 GiB; user supplied 43.306 GiB. Using in-core AOs.

  ==> MemDFJK: Density-Fitted J/K Matrices <==

    J tasked:                   Yes
    K tasked:                   Yes
    wK tasked:                   No
    OpenMP threads:               1
    Memory [MiB]:             44345
    Algorithm:                 Core
    Schwarz Cutoff:           1E-12
    Mask sparsity (%):      11.6875
    Fitting Condition:        1E-10

   => Auxiliary Basis Set <=

  Basis Set: (CC-PVDZ AUX)
    Blend: CC-PVDZ-JKFIT
    Number of shells: 438
    Number of basis functions: 1232
    Number of Cartesian functions: 1403
    Spherical Harmonics?: true
    Max angular momentum: 3

  Minimum eigenvalue in the overlap matrix is 3.3466954063E-04.
  Reciprocal condition number of the overlap matrix is 4.8639893593E-05.
    Using symmetric orthogonalization.

  ==> Pre-Iterations <==

  SCF Guess: Orbitals guess was supplied from a previous computation.

   -------------------------------------------------------
    Irrep   Nso     Nmo     Nalpha   Nbeta   Ndocc  Nsocc
   -------------------------------------------------------
     A        252     252      47      47      47       0
   -------------------------------------------------------
    Total     252     252      47      47      47       0
   -------------------------------------------------------

  ==> Iterations <==

                           Total Energy        Delta E     RMS |[F,P]|

   @DF-RHF iter   0:  -537.41456199038555   -5.37415e+02   3.65221e-04 
   @DF-RHF iter   1:  -537.43654925581177   -2.19873e-02   4.65489e-05 DIIS
   @DF-RHF iter   2:  -537.43666142636096   -1.12171e-04   1.93399e-05 DIIS
   @DF-RHF iter   3:  -537.43667736810494   -1.59417e-05   9.34295e-06 DIIS
   @DF-RHF iter   4:  -537.43668225186093   -4.88376e-06   2.79461e-06 DIIS
   @DF-RHF iter   5:  -537.43668281295959   -5.61099e-07   1.06778e-06 DIIS
   @DF-RHF iter   6:  -537.43668295443149   -1.41472e-07   5.96216e-07 DIIS
   @DF-RHF iter   7:  -537.43668300669788   -5.22664e-08   2.39275e-07 DIIS
   @DF-RHF iter   8:  -537.43668301702473   -1.03269e-08   1.01578e-07 DIIS
   @DF-RHF iter   9:  -537.43668301855098   -1.52625e-09   3.52337e-08 DIIS
   @DF-RHF iter  10:  -537.43668301871639   -1.65414e-10   1.21271e-08 DIIS
   @DF-RHF iter  11:  -537.43668301872913   -1.27329e-11   3.90941e-09 DIIS
   @DF-RHF iter  12:  -537.43668301873004   -9.09495e-13   1.41397e-09 DIIS
   @DF-RHF iter  13:  -537.43668301873117   -1.13687e-12   6.91871e-10 DIIS
   @DF-RHF iter  14:  -537.43668301873129   -1.13687e-13   3.08891e-10 DIIS
   @DF-RHF iter  15:  -537.43668301873060    6.82121e-13   1.21990e-10 DIIS
   @DF-RHF iter  16:  -537.43668301873095   -3.41061e-13   5.85692e-11 DIIS
  Energy and wave function converged.


  ==> Post-Iterations <==

    Orbital Energies [Eh]
    ---------------------

    Doubly Occupied:                                                      

       1A    -20.588864     2A    -11.304685     3A    -11.245483  
       4A    -11.244201     5A    -11.240012     6A    -11.238762  
       7A    -11.237107     8A    -11.234321     9A    -11.231851  
      10A    -11.230900    11A    -11.228159    12A    -11.227386  
      13A    -11.226525    14A     -1.402219    15A     -1.177997  
      16A     -1.134163    17A     -1.032275    18A     -1.012896  
      19A     -1.004668    20A     -0.948280    21A     -0.843736  
      22A     -0.841371    23A     -0.810506    24A     -0.771274  
      25A     -0.739018    26A     -0.723953    27A     -0.685967  
      28A     -0.653568    29A     -0.627704    30A     -0.615821  
      31A     -0.594108    32A     -0.583874    33A     -0.581514  
      34A     -0.569695    35A     -0.562527    36A     -0.558881  
      37A     -0.540076    38A     -0.489037    39A     -0.487082  
      40A     -0.480238    41A     -0.469391    42A     -0.466429  
      43A     -0.456414    44A     -0.404627    45A     -0.384619  
      46A     -0.337061    47A     -0.299604  

    Virtual:                                                              

      48A      0.127331    49A      0.150051    50A      0.177411  
      51A      0.179883    52A      0.201016    53A      0.206416  
      54A      0.211196    55A      0.232868    56A      0.238055  
      57A      0.250326    58A      0.258526    59A      0.259856  
      60A      0.265373    61A      0.283239    62A      0.301602  
      63A      0.307654    64A      0.333880    65A      0.349105  
      66A      0.358646    67A      0.372583    68A      0.387918  
      69A      0.406850    70A      0.415005    71A      0.426457  
      72A      0.464119    73A      0.481620    74A      0.495212  
      75A      0.513972    76A      0.518693    77A      0.526850  
      78A      0.586297    79A      0.627249    80A      0.633035  
      81A      0.645797    82A      0.662517    83A      0.664128  
      84A      0.675087    85A      0.682954    86A      0.690200  
      87A      0.707987    88A      0.713777    89A      0.719372  
      90A      0.727109    91A      0.739321    92A      0.745360  
[...]
	   95 D(1,6,5,21)     =   -155.804319     0.000000     0.019973  -155.784346
	   96 D(1,6,5,22)     =    -36.437074     0.000000     0.020219   -36.416855
	   97 D(2,1,6,5)      =    -96.505891     0.000000     0.014094   -96.491797
	   98 D(2,1,6,18)     =    110.100849     0.000000     0.003285   110.104135
	   99 D(2,3,4,5)      =     31.789937    -0.000000     0.037841    31.827778
	  100 D(2,3,4,23)     =    -84.535741     0.000000     0.042786   -84.492955
	  101 D(2,3,4,24)     =    156.108003     0.000000     0.038902   156.146905
	  102 D(2,6,1,19)     =   -107.787560     0.000000     0.027991  -107.759569
	  103 D(2,6,1,20)     =    108.280992    -0.000000    -0.002174   108.278818
	  104 D(2,6,5,4)      =     18.297937    -0.000000     0.014110    18.312047
	  105 D(2,6,5,21)     =    139.383728     0.000000     0.022806   139.406535
	  106 D(2,6,5,22)     =   -101.249027     0.000000     0.023053  -101.225974
	  107 D(2,7,8,9)      =    177.921878    -0.000000    -0.015237   177.906641
	  108 D(2,7,8,17)     =     -2.602966    -0.000000    -0.017923    -2.620889
	  109 D(2,7,12,11)    =   -177.992212    -0.000000     0.013675  -177.978537
	  110 D(2,7,12,13)    =      2.016463    -0.000000     0.035355     2.051818
	  111 D(3,2,1,6)      =     95.095933     0.000000     0.011572    95.107505
	  112 D(3,2,1,19)     =   -157.573941     0.000000     0.031055  -157.542887
	  113 D(3,2,1,20)     =    -12.813530    -0.000000     0.014730   -12.798800
	  114 D(3,2,6,5)      =      1.241993     0.000000     0.010819     1.252812
	  115 D(3,2,6,18)     =    143.495092     0.000000     0.002022   143.497114
	  116 D(3,2,7,8)      =    -73.307166    -0.000000    -0.416792   -73.723957
	  117 D(3,2,7,12)     =    104.390698    -0.000000    -0.433267   103.957431
	  118 D(3,4,5,6)      =    -30.816219     0.000000    -0.034612   -30.850831
	  119 D(3,4,5,21)     =   -151.764177     0.000000    -0.041953  -151.806130
	  120 D(3,4,5,22)     =     88.684551     0.000000    -0.041967    88.642584
	  121 D(4,3,2,6)      =    -20.346932    -0.000000    -0.030775   -20.377707
	  122 D(4,3,2,7)      =    122.441197    -0.000000    -0.015527   122.425671
	  123 D(4,5,6,18)     =   -124.052455    -0.000000     0.022245  -124.030210
	  124 D(5,4,3,25)     =    152.405384    -0.000000     0.036512   152.441896
	  125 D(5,4,3,26)     =    -87.691917    -0.000000     0.043036   -87.648880
	  126 D(5,6,1,19)     =    155.706548     0.000000     0.042085   155.748633
	  127 D(5,6,1,20)     =     11.775100    -0.000000     0.011920    11.787021
	  128 D(5,6,2,7)      =   -140.007729    -0.000000    -0.008840  -140.016569
	  129 D(6,1,2,7)      =   -111.959673     0.000000    -0.005988  -111.965660
	  130 D(6,2,1,19)     =    107.330126     0.000000     0.019483   107.349608
	  131 D(6,2,1,20)     =   -107.909463    -0.000000     0.003158  -107.906305
	  132 D(6,2,3,25)     =   -141.623529    -0.000000    -0.031865  -141.655395
	  133 D(6,2,3,26)     =     99.380960    -0.000000    -0.043613    99.337346
	  134 D(6,2,7,8)      =     63.486716    -0.000000    -0.394640    63.092076
	  135 D(6,2,7,12)     =   -118.815420    -0.000000    -0.411115  -119.226536
	  136 D(6,5,4,23)     =     85.477477    -0.000000    -0.042371    85.435106
	  137 D(6,5,4,24)     =   -155.103082     0.000000    -0.035036  -155.138118
	  138 D(7,2,1,19)     =     -4.629547     0.000000     0.013495    -4.616052
	  139 D(7,2,1,20)     =    140.130864    -0.000000    -0.002829   140.128035
	  140 D(7,2,3,25)     =      1.164600    -0.000000    -0.016617     1.147983
	  141 D(7,2,3,26)     =   -117.830911    -0.000000    -0.028365  -117.859275
	  142 D(7,2,6,18)     =      2.245370    -0.000000    -0.017637     2.227732
	  143 D(7,8,9,10)     =     -0.021723     0.000000     0.002069    -0.019654
	  144 D(7,8,9,16)     =    179.644978    -0.000000    -0.001522   179.643456
	  145 D(7,12,11,10)   =      0.217449     0.000000    -0.001943     0.215506
	  146 D(7,12,11,14)   =   -179.797914     0.000000     0.003603  -179.794311
	  147 D(8,7,12,11)    =     -0.237424    -0.000000    -0.001577    -0.239000
	  148 D(8,7,12,13)    =    179.771251     0.000000     0.020104   179.791355
	  149 D(8,9,10,11)    =     -0.003717    -0.000000    -0.005596    -0.009314
	  150 D(8,9,10,15)    =    179.802905     0.000000     0.010765   179.813670
	  151 D(9,8,7,12)     =      0.139951     0.000000     0.001498     0.141449
	  152 D(9,10,11,12)   =     -0.092173     0.000000     0.005527    -0.086647
	  153 D(9,10,11,14)   =    179.923194     0.000000    -0.000023   179.923171
	  154 D(9,10,15,27)   =   -179.948570    -0.000000    -0.013683  -179.962253
	  155 D(10,9,8,17)    =   -179.496639     0.000000     0.004675  -179.491963
	  156 D(10,11,12,13)  =   -179.791214    -0.000000    -0.023596  -179.814809
	  157 D(11,10,9,16)   =   -179.679083    -0.000000    -0.002080  -179.681164
	  158 D(11,10,15,27)  =     -0.149215     0.000000     0.003297    -0.145918
	  159 D(12,7,8,17)    =    179.615107     0.000000    -0.001188   179.613919
	  160 D(12,11,10,15)  =   -179.887418    -0.000000    -0.011808  -179.899226
	  161 D(13,12,11,14)  =      0.193424    -0.000000    -0.018051     0.175373
	  162 D(14,11,10,15)  =      0.127949    -0.000000    -0.017358     0.110591
	  163 D(15,10,9,16)   =      0.127539     0.000000     0.014281     0.141820
	  164 D(16,9,8,17)    =      0.170061     0.000000     0.001085     0.171146
	  165 D(18,6,1,19)    =      2.313289     0.000000     0.031276     2.344565
	  166 D(18,6,1,20)    =   -141.618159    -0.000000     0.001112  -141.617047
	  167 D(18,6,5,21)    =     -2.966664     0.000000     0.030942    -2.935722
	  168 D(18,6,5,22)    =    116.400580     0.000000     0.031189   116.431769
	  169 D(21,5,4,23)    =    -35.470481    -0.000000    -0.049712   -35.520193
	  170 D(21,5,4,24)    =     83.948960    -0.000000    -0.042377    83.906584
	  171 D(22,5,4,23)    =   -155.021753    -0.000000    -0.049726  -155.071479
	  172 D(22,5,4,24)    =    -35.602311    -0.000000    -0.042391   -35.644702
	  173 D(23,4,3,25)    =     36.079706     0.000000     0.041457    36.121163
	  174 D(23,4,3,26)    =    155.982405    -0.000000     0.047981   156.030387
	  175 D(24,4,3,25)    =    -83.276549     0.000000     0.037572   -83.238977
	  176 D(24,4,3,26)    =     36.626150     0.000000     0.044097    36.670246
	 ---------------------------------------------------------------------------
	Successfully symmetrized geometry.

  ==> Convergence Check <==

  Measures of convergence in internal coordinates in au.
  Criteria marked as inactive (o), active & met (*), and active & unmet ( ).
  ---------------------------------------------------------------------------------------------
   Step     Total Energy     Delta E     MAX Force     RMS Force      MAX Disp      RMS Disp   
  ---------------------------------------------------------------------------------------------
    Convergence Criteria    1.00e-06 *    3.00e-04 *             o    1.20e-03 *             o
  ---------------------------------------------------------------------------------------------
      7    -539.35835086   -9.93e-07 *    8.29e-05 *    1.64e-05 o    7.56e-03      1.37e-03 o  ~
  ---------------------------------------------------------------------------------------------


  **** Optimization is complete! (in 7 steps) ****

  ==> Optimization Summary <==

  Measures of convergence in internal coordinates in au.
  --------------------------------------------------------------------------------------------------------------- ~
   Step         Total Energy             Delta E       MAX Force       RMS Force        MAX Disp        RMS Disp  ~
  --------------------------------------------------------------------------------------------------------------- ~
      1    -539.356898008699   -539.356898008699      0.01837772      0.00227560      0.04768405      0.00969710  ~
      2    -539.358237428216     -0.001339419518      0.00381555      0.00049375      0.01715971      0.00575242  ~
      3    -539.358330814726     -0.000093386510      0.00094584      0.00014790      0.01378810      0.00410427  ~
      4    -539.358345454418     -0.000014639691      0.00041450      0.00005245      0.01207539      0.00266278  ~
      5    -539.358348737510     -0.000003283092      0.00012973      0.00002075      0.00894258      0.00164656  ~
      6    -539.358349870423     -0.000001132914      0.00012287      0.00002238      0.01105554      0.00197669  ~
      7    -539.358350863282     -0.000000992859      0.00008295      0.00001636      0.00756193      0.00136705  ~
  --------------------------------------------------------------------------------------------------------------- ~

	Writing optimization data to binary file.
	Final energy is   -539.3583508632822
	Final (previous) structure:
	Cartesian Geometry (in Angstrom)
	    C     1.5282713759   0.6419715636  -1.9930970088
	    C     1.1596744928   0.5238375694  -0.5267914630
	    C     1.9789960653   1.4137782991   0.4351376982
	    C     3.2631773951   0.6036390731   0.7280053929
	    C     3.5374882002  -0.2023763091  -0.5640284518
	    C     2.1455995215  -0.4620060271  -1.1539543684
	    C    -0.2312128056   0.1193099764  -0.1299057814
	    C    -0.4350236175  -0.8485251080   0.8776173622
	    C    -1.7205491670  -1.2099016793   1.2939381774
	    C    -2.8437804338  -0.6022737133   0.7035698786
	    C    -2.6619646934   0.3619534189  -0.2987205119
	    C    -1.3638890175   0.7165879394  -0.7055633444
	    H    -1.2351097862   1.4733600730  -1.4867703517
	    H    -3.5322999448   0.8395529428  -0.7650024494
	    O    -4.0789916575  -0.9959712132   1.1455923169
	    H    -1.8769628847  -1.9640698450   2.0706282035
	    H     0.4335603193  -1.3334513594   1.3376188480
	    H     1.8296110366  -1.4900895355  -1.3591108485
	    H     0.7729300867   0.3483344762  -2.7293464098
	    H     2.1719680939   1.4752474056  -2.2992070271
	    H     4.0740783805  -1.1436321791  -0.3556611901
	    H     4.1621321174   0.3790752471  -1.2680444368
	    H     3.0553392932  -0.1051550690   1.5519684026
	    H     4.1151302780   1.2333922927   1.0400309330
	    H     1.4095726185   1.6344200328   1.3533008988
	    H     2.2214571329   2.3823916938  -0.0413643288
	    H    -4.7403692686  -0.4961418560   0.6508162003
	Saving final (previous) structure.
	Cleaning optimization helper files.
			--------------------------
			 OPTKING Finished Execution 
			--------------------------

    Final optimized geometry and variables:
    Molecular point group: c1
    Full point group: C1

    Geometry (in Angstrom), charge = 0, multiplicity = 1:

    C            1.528271381876     0.641971566167    -1.993097016674
    C            1.159674497359     0.523837571431    -0.526791465060
    C            1.978996073034     1.413778304647     0.435137699947
    C            3.263177407898     0.603639075482     0.728005395780
    C            3.537488214059    -0.202376309919    -0.564028453997
    C            2.145599529886    -0.462006028937    -1.153954372933
    C           -0.231212806530     0.119309976823    -0.129905781888
    C           -0.435023619184    -0.848525111308     0.877617365628
    C           -1.720549173747    -1.209901684051     1.293938182494
    C           -2.843780444948    -0.602273715667     0.703569881384
    C           -2.661964703905     0.361953420317    -0.298720513042
    C           -1.363889022846     0.716587942178    -0.705563347196
    H           -1.235109791066     1.473360078830    -1.486770357525
    H           -3.532299958713     0.839552946114    -0.765002452402
    O           -4.078991673514    -0.995971217138     1.145592321375
    H           -1.876962892104    -1.964069852672     2.070628211593
    H            0.433560320977    -1.333451364647     1.337618853272
    H            1.829611043749    -1.490089541354    -1.359110853818
    H            0.772930089785     0.348334477569    -2.729346420536
    H            2.171968102425     1.475247411410    -2.299207036109
    H            4.074078396522    -1.143632183555    -0.355661191459
    H            4.162132133795     0.379075248571    -1.268044441772
    H            3.055339305243    -0.105155069421     1.551968408674
    H            4.115130294172     1.233392297556     1.040030937054
    H            1.409572623994     1.634420039250     1.353300904075
    H            2.221457141639     2.382391703199    -0.041364328947
    H           -4.740369287184    -0.496141857999     0.650816202883

	Removing binary optimization data file.
	Cleaning optimization helper files.


Properties will be evaluated at   0.000000,   0.000000,   0.000000 [a0]
OEProp: No title given, name of density matrix used for the following properties is 'SCF density'
  Mulliken Charges: (a.u.)
   Center  Symbol    Alpha    Beta     Spin     Total
       1     C     2.96500  2.96500  0.00000  0.07000
       2     C     3.12049  3.12049  0.00000 -0.24099
       3     C     2.97295  2.97295  0.00000  0.05409
       4     C     3.02195  3.02195  0.00000 -0.04391
       5     C     2.99297  2.99297  0.00000  0.01406
       6     C     3.05124  3.05124  0.00000 -0.10249
       7     C     3.04315  3.04315  0.00000 -0.08629
       8     C     2.98291  2.98291  0.00000  0.03419
       9     C     2.99727  2.99727  0.00000  0.00546
      10     C     2.96134  2.96134  0.00000  0.07731
      11     C     3.02113  3.02113  0.00000 -0.04225
      12     C     2.98773  2.98773  0.00000  0.02453
      13     H     0.49640  0.49640  0.00000  0.00721
      14     H     0.49414  0.49414  0.00000  0.01172
      15     O     4.11192  4.11192  0.00000 -0.22385
      16     H     0.48888  0.48888  0.00000  0.02224
      17     H     0.49727  0.49727  0.00000  0.00546
      18     H     0.49113  0.49113  0.00000  0.01773
      19     H     0.48154  0.48154  0.00000  0.03693
      20     H     0.48566  0.48566  0.00000  0.02868
      21     H     0.48369  0.48369  0.00000  0.03261
      22     H     0.48501  0.48501  0.00000  0.02998
      23     H     0.48446  0.48446  0.00000  0.03109
      24     H     0.48817  0.48817  0.00000  0.02367
      25     H     0.48361  0.48361  0.00000  0.03277
      26     H     0.48607  0.48607  0.00000  0.02786
      27     H     0.42390  0.42390  0.00000  0.15220

   Total alpha = 47.00000, Total beta = 47.00000, Total charge =  0.00000

    Molecular point group: c1
    Full point group: C1

    Geometry (in Angstrom), charge = 0, multiplicity = 1:

       Center              X                  Y                   Z               Mass       
    ------------   -----------------  -----------------  -----------------  -----------------
         C            1.528271381876     0.641971566167    -1.993097016674    12.000000000000
         C            1.159674497359     0.523837571431    -0.526791465060    12.000000000000
         C            1.978996073034     1.413778304647     0.435137699947    12.000000000000
         C            3.263177407898     0.603639075482     0.728005395780    12.000000000000
         C            3.537488214059    -0.202376309919    -0.564028453997    12.000000000000
         C            2.145599529886    -0.462006028937    -1.153954372933    12.000000000000
         C           -0.231212806530     0.119309976823    -0.129905781888    12.000000000000
         C           -0.435023619184    -0.848525111308     0.877617365628    12.000000000000
         C           -1.720549173747    -1.209901684051     1.293938182494    12.000000000000
         C           -2.843780444948    -0.602273715667     0.703569881384    12.000000000000
         C           -2.661964703905     0.361953420317    -0.298720513042    12.000000000000
         C           -1.363889022846     0.716587942178    -0.705563347196    12.000000000000
         H           -1.235109791066     1.473360078830    -1.486770357525     1.007825032230
         H           -3.532299958713     0.839552946114    -0.765002452402     1.007825032230
         O           -4.078991673514    -0.995971217138     1.145592321375    15.994914619570
         H           -1.876962892104    -1.964069852672     2.070628211593     1.007825032230
         H            0.433560320977    -1.333451364647     1.337618853272     1.007825032230
         H            1.829611043749    -1.490089541354    -1.359110853818     1.007825032230
         H            0.772930089785     0.348334477569    -2.729346420536     1.007825032230
         H            2.171968102425     1.475247411410    -2.299207036109     1.007825032230
         H            4.074078396522    -1.143632183555    -0.355661191459     1.007825032230
         H            4.162132133795     0.379075248571    -1.268044441772     1.007825032230
         H            3.055339305243    -0.105155069421     1.551968408674     1.007825032230
         H            4.115130294172     1.233392297556     1.040030937054     1.007825032230
         H            1.409572623994     1.634420039250     1.353300904075     1.007825032230
         H            2.221457141639     2.382391703199    -0.041364328947     1.007825032230
         H           -4.740369287184    -0.496141857999     0.650816202883     1.007825032230



  Variable Map:
  ----------------------------------------------------------------------------
  "CC D1 DIAGNOSTIC"                      =>       0.035180878142
  "CC D2 DIAGNOSTIC"                      =>       0.186821745423
  "CC NEW D1 DIAGNOSTIC"                  =>       0.035180878142
  "CC T1 DIAGNOSTIC"                      =>       0.008578230767
  "CCSD CORRELATION ENERGY"               =>      -1.920575075301
  "CCSD DOUBLES ENERGY"                   =>      -1.920575075301
  "CCSD ITERATIONS"                       =>      15.000000000000
  "CCSD OPPOSITE-SPIN CORRELATION ENERGY" =>      -1.488080106736
  "CCSD SAME-SPIN CORRELATION ENERGY"     =>      -0.432494968565
  "CCSD SINGLES ENERGY"                   =>       0.000000000000
  "CCSD TOTAL ENERGY"                     =>    -539.358350863282
  "CURRENT CORRELATION ENERGY"            =>      -1.920575075301
  "CURRENT DIPOLE X"                      =>      -0.143159392973
  "CURRENT DIPOLE Y"                      =>       0.887731928869
  "CURRENT DIPOLE Z"                      =>      -0.864422619537
  "CURRENT ENERGY"                        =>    -539.358350863282
  "CURRENT REFERENCE ENERGY"              =>    -537.437066197001
  "HF TOTAL ENERGY"                       =>    -537.437066197001
  "LCCSD (+LMP2) TOTAL ENERGY"            =>    -539.358350863282
  "MP2 CORRELATION ENERGY"                =>      -1.836532483236
  "MP2 DOUBLES ENERGY"                    =>      -1.836532483236
  "MP2 OPPOSITE-SPIN CORRELATION ENERGY"  =>      -1.354507907115
  "MP2 SAME-SPIN CORRELATION ENERGY"      =>      -0.482024576121
  "MP2 SINGLES ENERGY"                    =>      -0.000000000000
  "MP2 TOTAL ENERGY"                      =>    -539.274308271218
  "NUCLEAR REPULSION ENERGY"              =>     758.316552240660
  "ONE-ELECTRON ENERGY"                   =>   -2233.990703651187
  "OPTIMIZATION ITERATIONS"               =>       7.000000000000
  "PCM POLARIZATION ENERGY"               =>       0.000000000000
  "PE ENERGY"                             =>       0.000000000000
  "SCF DIPOLE X"                          =>      -0.143159392973
  "SCF DIPOLE Y"                          =>       0.887731928869
  "SCF DIPOLE Z"                          =>      -0.864422619537
  "SCF ITERATION ENERGY"                  =>    -537.437066197001
  "SCF ITERATIONS"                        =>      13.000000000000
  "SCF TOTAL ENERGY"                      =>    -537.437066197001
  "TWO-ELECTRON ENERGY"                   =>     938.237085213526



    Psi4 stopped on: Friday, 11 February 2022 01:17AM
    Psi4 wall time for execution: 1 day, 21:24:02.74

*** Psi4 exiting successfully. Buy a developer a beer!
