
    -----------------------------------------------------------------------
          Psi4: An Open-Source Ab Initio Electronic Structure Package
                               Psi4 1.4 release

                         Git: Rev {HEAD} 9485035 


    D. G. A. Smith, L. A. Burns, A. C. Simmonett, R. M. Parrish,
    M. C. Schieber, R. Galvelis, P. Kraus, H. Kruse, R. Di Remigio,
    A. Alenaizan, A. M. James, S. Lehtola, J. P. Misiewicz, M. Scheurer,
    R. A. Shaw, J. B. Schriber, Y. Xie, Z. L. Glick, D. A. Sirianni,
    J. S. O'Brien, J. M. Waldrop, A. Kumar, E. G. Hohenstein,
    B. P. Pritchard, B. R. Brooks, H. F. Schaefer III, A. Yu. Sokolov,
    K. Patkowski, A. E. DePrince III, U. Bozkaya, R. A. King,
    F. A. Evangelista, J. M. Turney, T. D. Crawford, C. D. Sherrill,
    J. Chem. Phys. 152(18) 184108 (2020). https://doi.org/10.1063/5.0006002

                            Additional Code Authors
    E. T. Seidl, C. L. Janssen, E. F. Valeev, M. L. Leininger,
    J. F. Gonthier, R. M. Richard, H. R. McAlexander, M. Saitow, X. Wang,
    P. Verma, and M. H. Lechner

             Previous Authors, Complete List of Code Contributors,
                       and Citations for Specific Modules
    https://github.com/psi4/psi4/blob/master/codemeta.json
    https://github.com/psi4/psi4/graphs/contributors
    http://psicode.org/psi4manual/master/introduction.html#citing-psifour

    -----------------------------------------------------------------------


    Psi4 started on: Thursday, 17 February 2022 05:16PM

    Process ID: 2521775
    Host:       skylm001.palmetto.clemson.edu
    PSIDATADIR: /home/maxbuskirk/.conda/envs/psifour/share/psi4
    Memory:     500.0 MiB
    Threads:    1
    
  ==> Input File <==

--------------------------------------------------------------------------
memory 62 GB

molecule mol {
1 1
    C            3.463374812365     0.476963032123     0.868367774883
    C            2.394124927471     1.472497392736     0.378006598727
    C            1.525800972064     0.709840419390    -0.642606067739
    C            1.788025475013     0.848187808710    -2.035455871877
    C            2.533629375516    -0.523579312927    -1.199110873439
    C            3.833667348291    -0.334461834362    -0.381536837166
    C            0.162653133698     0.231343345302    -0.221769604363
    C            0.010226651312    -0.677922044167     0.853110911769
    C           -1.255520197069    -1.070867526400     1.269621254136
    C           -2.416037453184    -0.555125384909     0.637558359721
    C           -2.272325912317     0.360067129702    -0.420763027642
    C           -0.985641892853     0.745770889671    -0.838419778810
    H           -0.900311704830     1.478120548428    -1.649715838978
    H           -3.140243345639     0.788209651227    -0.924940366435
    O           -3.585045799645    -1.005450156774     1.128902291800
    H           -1.389591699235    -1.780567092610     2.090482193866
    H            0.888205485721    -1.094314442659     1.358715047144
    H            1.055857571582     0.471671330947    -2.758229053902
    H            2.554862490077     1.537488471276    -2.409013608670
    H            3.035670314355    -0.184995183228     1.642287312338
    H            4.334970633035     0.983275387949     1.313867506180
    H            4.249692726706    -1.328212393682    -0.151221140186
    H            4.574259985712     0.205362428193    -0.995736790391
    H            1.970170297358    -1.468576587946    -1.185867313605
    H            1.749322867765     1.836754094577     1.192209604494
    H            2.858337695186     2.350337962851    -0.108555209365
    H            2.866286028252    -0.477031989129    -2.317777780705
    C           -4.790590497916    -0.518544903802     0.538626285296
    H           -5.607121844075    -1.008796296612     1.084965415543
    H           -4.877833119611     0.576295903322     0.653459287839
    H           -4.850014091829    -0.789359141658    -0.530258448326
}

set scf_type df
set opt_type ts
set basis cc-pVDZ
set reference rhf
set geom_maxiter 400


mol.update_geometry()
mol.symmetrize(1e-3)

e, wfn = optimize('CCSD', return_wfn=True)
oeprop(wfn, "MULLIKEN_CHARGES")
mol.print_out()
print_variables()
--------------------------------------------------------------------------

  Memory set to  57.742 GiB by Python driver.

Scratch directory: /scratch1/maxbuskirk/
gradient() will perform analytic gradient computation.

*** tstart() called on skylm001.palmetto.clemson.edu
*** at Thu Feb 17 17:16:34 2022

   => Loading Basis Set <=

    Name: CC-PVDZ
    Role: ORBITAL
    Keyword: BASIS
    atoms 1-12, 28            entry C          line   138 file /home/maxbuskirk/.conda/envs/psifour/share/psi4/basis/cc-pvdz.gbs 
    atoms 13-14, 16-27, 29-31 entry H          line    22 file /home/maxbuskirk/.conda/envs/psifour/share/psi4/basis/cc-pvdz.gbs 
    atoms 15                  entry O          line   198 file /home/maxbuskirk/.conda/envs/psifour/share/psi4/basis/cc-pvdz.gbs 


         ---------------------------------------------------------
                                   SCF
               by Justin Turney, Rob Parrish, Andy Simmonett
                          and Daniel G. A. Smith
                              RHF Reference
                        1 Threads,  59127 MiB Core
         ---------------------------------------------------------

  ==> Geometry <==

    Molecular point group: c1
    Full point group: C1

    Geometry (in Angstrom), charge = 1, multiplicity = 1:

       Center              X                  Y                   Z               Mass       
    ------------   -----------------  -----------------  -----------------  -----------------
         C            3.463374812365     0.476963032123     0.868367774883    12.000000000000
         C            2.394124927471     1.472497392736     0.378006598727    12.000000000000
         C            1.525800972064     0.709840419390    -0.642606067739    12.000000000000
         C            1.788025475013     0.848187808710    -2.035455871877    12.000000000000
         C            2.533629375516    -0.523579312927    -1.199110873439    12.000000000000
         C            3.833667348291    -0.334461834362    -0.381536837166    12.000000000000
         C            0.162653133698     0.231343345302    -0.221769604363    12.000000000000
         C            0.010226651312    -0.677922044167     0.853110911769    12.000000000000
         C           -1.255520197069    -1.070867526400     1.269621254136    12.000000000000
         C           -2.416037453184    -0.555125384909     0.637558359721    12.000000000000
         C           -2.272325912317     0.360067129702    -0.420763027642    12.000000000000
         C           -0.985641892853     0.745770889671    -0.838419778810    12.000000000000
         H           -0.900311704830     1.478120548428    -1.649715838978     1.007825032230
         H           -3.140243345639     0.788209651227    -0.924940366435     1.007825032230
         O           -3.585045799645    -1.005450156774     1.128902291800    15.994914619570
         H           -1.389591699235    -1.780567092610     2.090482193866     1.007825032230
         H            0.888205485721    -1.094314442659     1.358715047144     1.007825032230
         H            1.055857571582     0.471671330947    -2.758229053902     1.007825032230
         H            2.554862490077     1.537488471276    -2.409013608670     1.007825032230
         H            3.035670314355    -0.184995183228     1.642287312338     1.007825032230
         H            4.334970633035     0.983275387949     1.313867506180     1.007825032230
         H            4.249692726706    -1.328212393682    -0.151221140186     1.007825032230
         H            4.574259985712     0.205362428193    -0.995736790391     1.007825032230
         H            1.970170297358    -1.468576587946    -1.185867313605     1.007825032230
         H            1.749322867765     1.836754094577     1.192209604494     1.007825032230
         H            2.858337695186     2.350337962851    -0.108555209365     1.007825032230
         H            2.866286028252    -0.477031989129    -2.317777780705     1.007825032230
         C           -4.790590497916    -0.518544903802     0.538626285296    12.000000000000
         H           -5.607121844075    -1.008796296612     1.084965415543     1.007825032230
         H           -4.877833119611     0.576295903322     0.653459287839     1.007825032230
         H           -4.850014091829    -0.789359141658    -0.530258448326     1.007825032230

  Running in c1 symmetry.

  Rotational constants: A =      0.06477  B =      0.01123  C =      0.01048 [cm^-1]
  Rotational constants: A =   1941.79160  B =    336.74462  C =    314.23449 [MHz]
  Nuclear repulsion =  874.525688691530263

  Charge       = 1
  Multiplicity = 1
  Electrons    = 102
  Nalpha       = 51
  Nbeta        = 51

  ==> Algorithm <==

  SCF Algorithm Type is DF.
  DIIS enabled.
  MOM disabled.
  Fractional occupation disabled.
  Guess Type is SAD.
  Energy threshold   = 1.00e-10
  Density threshold  = 1.00e-10
  Integral threshold = 1.00e-12

  ==> Primary Basis <==

  Basis Set: CC-PVDZ
    Blend: CC-PVDZ
    Number of shells: 135
    Number of basis functions: 281
    Number of Cartesian functions: 295
    Spherical Harmonics?: true
    Max angular momentum: 2

   => Loading Basis Set <=

    Name: (CC-PVDZ AUX)
    Role: JKFIT
    Keyword: DF_BASIS_SCF
    atoms 1-12, 28            entry C          line   121 file /home/maxbuskirk/.conda/envs/psifour/share/psi4/basis/cc-pvdz-jkfit.gbs 
    atoms 13-14, 16-27, 29-31 entry H          line    51 file /home/maxbuskirk/.conda/envs/psifour/share/psi4/basis/cc-pvdz-jkfit.gbs 
    atoms 15                  entry O          line   221 file /home/maxbuskirk/.conda/envs/psifour/share/psi4/basis/cc-pvdz-jkfit.gbs 

  ==> Integral Setup <==

  DFHelper Memory: AOs need 0.707 GiB; user supplied 43.306 GiB. Using in-core AOs.

  ==> MemDFJK: Density-Fitted J/K Matrices <==

    J tasked:                   Yes
    K tasked:                   Yes
    wK tasked:                   No
    OpenMP threads:               1
    Memory [MiB]:             44345
    Algorithm:                 Core
    Schwarz Cutoff:           1E-12
    Mask sparsity (%):      15.6989
    Fitting Condition:        1E-10

   => Auxiliary Basis Set <=

  Basis Set: (CC-PVDZ AUX)
    Blend: CC-PVDZ-JKFIT
    Number of shells: 489
    Number of basis functions: 1371
    Number of Cartesian functions: 1559
    Spherical Harmonics?: true
    Max angular momentum: 3

  Minimum eigenvalue in the overlap matrix is 3.2895669876E-04.
  Reciprocal condition number of the overlap matrix is 4.6814632782E-05.
    Using symmetric orthogonalization.

  ==> Pre-Iterations <==

  SCF Guess: Superposition of Atomic Densities via on-the-fly atomic UHF (no occupation information).

   -------------------------
    Irrep   Nso     Nmo    
   -------------------------
     A        281     281 
   -------------------------
    Total     281     281
   -------------------------

  ==> Iterations <==

                           Total Energy        Delta E     RMS |[F,P]|

   @DF-RHF iter SAD:  -576.52583981791076   -5.76526e+02   0.00000e+00 
   @DF-RHF iter   1:  -576.51658855027927    9.25127e-03   2.11388e-03 DIIS
   @DF-RHF iter   2:  -576.74545985262534   -2.28871e-01   8.31340e-04 DIIS
   @DF-RHF iter   3:  -576.77625547467255   -3.07956e-02   2.57412e-04 DIIS
   @DF-RHF iter   4:  -576.78035794152834   -4.10247e-03   6.53394e-05 DIIS
   @DF-RHF iter   5:  -576.78059301900407   -2.35077e-04   2.60530e-05 DIIS
   @DF-RHF iter   6:  -576.78063748841998   -4.44694e-05   7.88511e-06 DIIS
   @DF-RHF iter   7:  -576.78064446340079   -6.97498e-06   3.29888e-06 DIIS
   @DF-RHF iter   8:  -576.78064600774701   -1.54435e-06   1.30027e-06 DIIS
   @DF-RHF iter   9:  -576.78064637900934   -3.71262e-07   6.55448e-07 DIIS
   @DF-RHF iter  10:  -576.78064645624272   -7.72334e-08   3.03707e-07 DIIS
   @DF-RHF iter  11:  -576.78064647713518   -2.08925e-08   9.44084e-08 DIIS
   @DF-RHF iter  12:  -576.78064647868723   -1.55205e-09   3.36699e-08 DIIS
   @DF-RHF iter  13:  -576.78064647881752   -1.30285e-10   1.32500e-08 DIIS
   @DF-RHF iter  14:  -576.78064647884150   -2.39879e-11   4.53812e-09 DIIS
   @DF-RHF iter  15:  -576.78064647884173   -2.27374e-13   2.19682e-09 DIIS
   @DF-RHF iter  16:  -576.78064647884548   -3.75167e-12   9.60793e-10 DIIS
   @DF-RHF iter  17:  -576.78064647884548    0.00000e+00   4.23423e-10 DIIS
   @DF-RHF iter  18:  -576.78064647884617   -6.82121e-13   1.55223e-10 DIIS
   @DF-RHF iter  19:  -576.78064647884378    2.38742e-12   6.06432e-11 DIIS
  Energy and wave function converged.


  ==> Post-Iterations <==

    Orbital Energies [Eh]
    ---------------------

    Doubly Occupied:                                                      

       1A    -20.694684     2A    -11.506095     3A    -11.465556  
       4A    -11.462797     5A    -11.430837     6A    -11.404695  
       7A    -11.395515     8A    -11.387571     9A    -11.385654  
      10A    -11.383665    11A    -11.382120    12A    -11.380078  
      13A    -11.360184    14A    -11.358447    15A     -1.523269  
      16A     -1.371784    17A     -1.272432    18A     -1.215802  
      19A     -1.170031    20A     -1.144879    21A     -1.130289  
      22A     -1.054740    23A     -1.035622    24A     -0.979113  
      25A     -0.963291    26A     -0.950270    27A     -0.916181  
      28A     -0.861537    29A     -0.825242    30A     -0.815186  
      31A     -0.787301    32A     -0.785076    33A     -0.775174  
      34A     -0.755765    35A     -0.752147    36A     -0.738974  
      37A     -0.714568    38A     -0.702688    39A     -0.690075  
      40A     -0.681757    41A     -0.664146    42A     -0.645376  
      43A     -0.641055    44A     -0.638706    45A     -0.631889  
      46A     -0.622447    47A     -0.609961    48A     -0.592308  
      49A     -0.578028    50A     -0.465801    51A     -0.431189  

    Virtual:                                                              

      52A     -0.050306    53A     -0.001095    54A      0.008460  
      55A      0.015094    56A      0.043958    57A      0.052055  
      58A      0.057201    59A      0.080318    60A      0.094699  
      61A      0.097457    62A      0.102230    63A      0.113460  
      64A      0.121002    65A      0.125299    66A      0.140455  
      67A      0.150054    68A      0.156555    69A      0.165112  
      70A      0.177223    71A      0.184822    72A      0.190318  
      73A      0.202913    74A      0.212464    75A      0.232458  
      76A      0.237742    77A      0.250510    78A      0.270136  
      79A      0.296957    80A      0.316975    81A      0.324333  
      82A      0.345147    83A      0.352946    84A      0.359206  
      85A      0.386485    86A      0.420567    87A      0.448881  
      88A      0.460567    89A      0.471575    90A      0.493070  
      91A      0.500100    92A      0.514748    93A      0.522170  
      94A      0.533957    95A      0.535549    96A      0.544150  
      97A      0.556368    98A      0.580388    99A      0.581808  
     100A      0.588580   101A      0.593455   102A      0.605279  
     103A      0.615163   104A      0.626828   105A      0.627192  
     106A      0.639032   107A      0.657237   108A      0.660415  
     109A      0.672734   110A      0.677943   111A      0.690164  
     112A      0.693481   113A      0.700524   114A      0.712109  
     115A      0.715721   116A      0.717419   117A      0.720525  
     118A      0.735671   119A      0.744589   120A      0.751610  
     121A      0.756050   122A      0.761702   123A      0.764125  
     124A      0.766236   125A      0.775323   126A      0.780326  
     127A      0.792741   128A      0.796499   129A      0.800836  
     130A      0.819221   131A      0.825694   132A      0.836786  
     133A      0.851554   134A      0.869848   135A      0.879940  
     136A      0.903406   137A      0.931486   138A      0.967569  
     139A      0.991046   140A      1.012891   141A      1.015153  
     142A      1.039267   143A      1.049493   144A      1.058859  
     145A      1.070208   146A      1.084209   147A      1.095746  
     148A      1.106940   149A      1.112229   150A      1.125389  
     151A      1.143588   152A      1.154840   153A      1.166516  
     154A      1.187930   155A      1.206086   156A      1.214708  
     157A      1.232630   158A      1.255331   159A      1.276314  
     160A      1.289608   161A      1.307597   162A      1.319325  
     163A      1.324219   164A      1.352962   165A      1.395622  
     166A      1.403743   167A      1.413621   168A      1.447382  
     169A      1.474032   170A      1.480913   171A      1.494928  
     172A      1.513369   173A      1.538856   174A      1.562556  
     175A      1.563135   176A      1.576895   177A      1.595088  
     178A      1.603012   179A      1.624018   180A      1.638649  
     181A      1.645542   182A      1.649937   183A      1.662938  
     184A      1.674437   185A      1.681194   186A      1.693865  
     187A      1.707242   188A      1.730750   189A      1.742005  
     190A      1.745959   191A      1.750518   192A      1.756461  
     193A      1.766857   194A      1.771415   195A      1.772563  
     196A      1.778046   197A      1.793070   198A      1.801981  
     199A      1.806339   200A      1.819899   201A      1.828902  
     202A      1.831112   203A      1.842937   204A      1.850417  
     205A      1.858496   206A      1.866370   207A      1.868695  
     208A      1.883693   209A      1.888543   210A      1.915567  
     211A      1.918573   212A      1.929605   213A      1.938026  
     214A      1.944077   215A      1.956021   216A      1.964143  
     217A      1.982946   218A      1.990392   219A      2.001389  
     220A      2.023175   221A      2.032544   222A      2.040693  
     223A      2.046127   224A      2.065745   225A      2.083310  
     226A      2.091344   227A      2.111509   228A      2.126364  
     229A      2.132451   230A      2.138746   231A      2.160217  
     232A      2.176626   233A      2.186028   234A      2.215862  
     235A      2.233200   236A      2.247239   237A      2.255737  
     238A      2.270964   239A      2.279664   240A      2.288280  
     241A      2.306600   242A      2.309826   243A      2.320384  
     244A      2.358500   245A      2.362947   246A      2.396007  
     247A      2.408554   248A      2.417407   249A      2.448160  
     250A      2.456111   251A      2.464211   252A      2.481275  
     253A      2.504069   254A      2.573790   255A      2.585948  
     256A      2.608590   257A      2.617159   258A      2.634523  
     259A      2.646942   260A      2.657212   261A      2.674557  
     262A      2.686368   263A      2.705867   264A      2.730895  
     265A      2.755596   266A      2.775983   267A      2.824067  
     268A      2.832158   269A      2.852939   270A      2.858607  
     271A      2.905802   272A      2.934246   273A      2.954405  
     274A      3.024253   275A      3.117543   276A      3.146623  
     277A      3.303859   278A      3.311741   279A      3.519731  
     280A      3.700254   281A      3.881006  

    Final Occupation by Irrep:
              A 
    DOCC [    51 ]

  @DF-RHF Final Energy:  -576.78064647884378

   => Energetics <=

    Nuclear Repulsion Energy =            874.5256886915302630
    One-Electron Energy =               -2502.3486714613873119
    Two-Electron Energy =                1051.0423362910130436
    Total Energy =                       -576.7806464788438916

Computation Completed


Properties will be evaluated at   0.000000,   0.000000,   0.000000 [a0]

Properties computed using the SCF density matrix

  Nuclear Dipole Moment: [e a0]
     X:     8.7692      Y:     1.9598      Z:    -3.4588

  Electronic Dipole Moment: [e a0]
     X:    -6.2141      Y:    -1.2974      Z:     1.3626

  Dipole Moment: [e a0]
     X:     2.5551      Y:     0.6623      Z:    -2.0962     Total:     3.3707

  Dipole Moment: [D]
     X:     6.4944      Y:     1.6835      Z:    -5.3280     Total:     8.5674


*** tstop() called on skylm001.palmetto.clemson.edu at Thu Feb 17 17:17:01 2022
Module time:
	user time   =      24.64 seconds =       0.41 minutes
	system time =       1.05 seconds =       0.02 minutes
	total time  =         27 seconds =       0.45 minutes
Total time:
	user time   =      24.64 seconds =       0.41 minutes
	system time =       1.05 seconds =       0.02 minutes
	total time  =         27 seconds =       0.45 minutes
 MINTS: Wrapper to libmints.
   by Justin Turney

   Calculation information:
      Number of threads:                 1
      Number of atoms:                  31
      Number of AO shells:             135
      Number of SO shells:             135
      Number of primitives:            393
      Number of atomic orbitals:       295
      Number of basis functions:       281

      Number of irreps:                  1
      Integral cutoff                 1.00e-12
      Number of functions per irrep: [ 281 ]

 OEINTS: Overlap, kinetic, potential, dipole, and quadrupole integrals
         stored in file 35.

      Computing two-electron integrals...done
      Computed 429093322 non-zero two-electron integrals.
        Stored in file 33.


*** tstart() called on skylm001.palmetto.clemson.edu
*** at Thu Feb 17 17:24:53 2022


	Wfn Parameters:
	--------------------
	Wavefunction         = CCSD
	Number of irreps     = 1
	Number of MOs        = 281
	Number of active MOs = 281
	AO-Basis             = NONE
	Semicanonical        = false
	Reference            = RHF
	Print Level          = 1

	IRREP	# MOs	# FZDC	# DOCC	# SOCC	# VIRT	# FZVR
	-----	-----	------	------	------	------	------
	 A	   281	    0	    51	    0	    230	    0
	Transforming integrals...
	IWL integrals will be deleted.
	(OO|OO)...
	Presorting SO-basis two-electron integrals.
	Sorting File: SO Ints (nn|nn) nbuckets = 1
	Constructing frozen core operators
	Starting first half-transformation.
	Sorting half-transformed integrals.
	First half integral transformation complete.
	Starting second half-transformation.
	Two-electron integral transformation complete.
	(OO|OV)...
	Starting second half-transformation.
	Two-electron integral transformation complete.
	(OO|VV)...
	Starting second half-transformation.
	Two-electron integral transformation complete.
	(OV|OO)...
	Starting first half-transformation.
	Sorting half-transformed integrals.
	First half integral transformation complete.
	Starting second half-transformation.
	Two-electron integral transformation complete.
	(OV|OV)...
	Starting second half-transformation.
	Two-electron integral transformation complete.
	(OV|VV)...
	Starting second half-transformation.
	Two-electron integral transformation complete.
	(VV|OO)...
	Starting first half-transformation.
	Sorting half-transformed integrals.
	First half integral transformation complete.
	Starting second half-transformation.
	Two-electron integral transformation complete.
	(VV|OV)...
	Starting second half-transformation.
	Two-electron integral transformation complete.
	(VV|VV)...
	Starting second half-transformation.
	Two-electron integral transformation complete.
	Frozen core energy     =      0.00000000000000

	Size of irrep 0 of <ab|cd> integrals:   2798.410 (MW) /  22387.280 (MB)
	Total:                                  2798.410 (MW) /  22387.280 (MB)

	Size of irrep 0 of <ia|bc> integrals:    620.517 (MW) /   4964.136 (MB)
	Total:                                   620.517 (MW) /   4964.136 (MB)

	Size of irrep 0 of tijab amplitudes:     137.593 (MW) /   1100.743 (MB)
	Total:                                   137.593 (MW) /   1100.743 (MB)

	Nuclear Rep. energy          =    874.52568869153026
	SCF energy                   =   -576.78064647884378
	One-electron energy          =  -2502.34867139877360
	Two-electron energy          =   1051.04155760955564
	Reference energy             =   -576.78142509768770

*** tstop() called on skylm001.palmetto.clemson.edu at Thu Feb 17 17:41:41 2022
Module time:
	user time   =     415.16 seconds =       6.92 minutes
	system time =     167.99 seconds =       2.80 minutes
	total time  =       1008 seconds =      16.80 minutes
Total time:
	user time   =     719.42 seconds =      11.99 minutes
	system time =     181.13 seconds =       3.02 minutes
	total time  =       1507 seconds =      25.12 minutes
            **************************
            *                        *
            *        CCENERGY        *
            *                        *
            **************************

    Nuclear Rep. energy (wfn)     =  874.525688691530263
    SCF energy          (wfn)     = -576.780646478843778
    Reference energy    (file100) = -576.781425097687702

    Input parameters:
    -----------------
    Wave function   =     CCSD
    Reference wfn   =     RHF
    Brueckner       =     No
    Memory (Mbytes) =     62000.0
    Maxiter         =     50
    R_Convergence   =     1.0e-07
    E_Convergence   =     1.0e-08
    Restart         =     Yes
    DIIS            =     Yes
    AO Basis        =     NONE
    ABCD            =     NEW
    Cache Level     =     2
    Cache Type      =     LOW
    Print Level     =     1
    Num. of threads =     1
    # Amps to Print =     10
    Print MP2 Amps? =     No
    Analyze T2 Amps =     No
    Print Pair Ener =     No
    Local CC        =     No
    SCS-MP2         =     False
    SCSN-MP2        =     False
    SCS-CCSD        =     False

MP2 correlation energy -1.9776721458848492
                Solving CC Amplitude Equations
                ------------------------------
  Iter             Energy              RMS        T1Diag      D1Diag    New D1Diag    D2Diag
  ----     ---------------------    ---------   ----------  ----------  ----------   --------
     0        -1.977672145884849    0.000e+00    0.000000    0.000000    0.000000    0.178155
     1        -2.009966288238878    1.392e-01    0.007949    0.036127    0.036127    0.166313
     2        -2.063863424024207    4.831e-02    0.007894    0.032287    0.032287    0.179184
     3        -2.076892950635724    2.221e-02    0.009242    0.043219    0.043219    0.182987
     4        -2.077154705847643    7.037e-03    0.009470    0.044213    0.044213    0.184352
     5        -2.077175493318964    3.764e-03    0.009633    0.046299    0.046299    0.185363
     6        -2.077287051835389    1.209e-03    0.009702    0.047226    0.047226    0.185680
     7        -2.077274997220325    6.353e-04    0.009726    0.047567    0.047567    0.185726
     8        -2.077252351628548    2.911e-04    0.009736    0.047742    0.047742    0.185725
     9        -2.077257117526569    1.576e-04    0.009743    0.047841    0.047841    0.185720
    10        -2.077257930493903    8.159e-05    0.009746    0.047881    0.047881    0.185710
    11        -2.077254645532711    3.494e-05    0.009746    0.047889    0.047889    0.185705
    12        -2.077253859050458    1.676e-05    0.009746    0.047893    0.047893    0.185705
    13        -2.077252969315345    6.273e-06    0.009746    0.047889    0.047889    0.185705
    14        -2.077252746289285    2.948e-06    0.009746    0.047889    0.047889    0.185705
    15        -2.077252689005070    1.195e-06    0.009746    0.047888    0.047888    0.185705
    16        -2.077252663072953    6.244e-07    0.009746    0.047888    0.047888    0.185705
    17        -2.077252664218407    2.582e-07    0.009746    0.047888    0.047888    0.185705
    18        -2.077252663421487    1.395e-07    0.009746    0.047888    0.047888    0.185705
    19        -2.077252662405524    5.952e-08    0.009746    0.047888    0.047888    0.185705

    Iterations converged.


    Largest TIA Amplitudes:
             48   2        -0.0240873986
             48   3         0.0171395673
             49  51         0.0156201654
             34   2        -0.0153571125
             50   0         0.0153481898
             49   1        -0.0138801391
             34   3         0.0120266534
             40   0        -0.0117379163
             50  49         0.0107581246
             41   0        -0.0104531940

    Largest TIjAb Amplitudes:
     49  49   1   1        -0.0761602265
     50  50   1   1        -0.0358543557
     50  50   2   2        -0.0335628377
     50  50   2   3         0.0273268133
     50  50   3   2         0.0273268133
     49  50   2   1         0.0267445040
     50  49   1   2         0.0267445040
     50  50   3   3        -0.0232167332
     49  50   3   1        -0.0215512000
     50  49   1   3        -0.0215512000

    SCF energy       (wfn)                    = -576.780646478843778
    Reference energy (file100)                = -576.781425097687702

    Opposite-spin MP2 correlation energy      =   -1.466330922813649
    Same-spin MP2 correlation energy          =   -0.511341223071201
    Singles MP2 correlation energy            =   -0.000000000000000
    MP2 correlation energy                    =   -1.977672145884849
      * MP2 total energy                      = -578.759097243572569

    Opposite-spin CCSD correlation energy     =   -1.616418447059586
    Same-spin CCSD correlation energy         =   -0.460834215345938
    Singles CCSD correlation energy           =    0.000000000000000
    CCSD correlation energy                   =   -2.077252662405524
      * CCSD total energy                     = -578.858677760093201


			**************************
			*                        *
			*         CCHBAR         *
			*                        *
			**************************


			**************************
			*        CCLAMBDA        *
			**************************


	Nuclear Rep. energy (wfn)     =  874.525688691530263
	Reference           (wfn)     =                    0
	SCF energy          (wfn)     = -576.780646478843778
	Reference energy    (CC_INFO) = -576.781425097687702
	CCSD energy         (CC_INFO) =   -2.077252662405524
	Total CCSD energy   (CC_INFO) = -578.858677760093201

	Input parameters:
	-----------------
	Maxiter           =     50
	Convergence       = 1.0e-07
	Restart           =     No
	Cache Level       =     2
	Model III         =     No
	DIIS              =     Yes
	AO Basis          =     No
	ABCD              =     NEW
	Local CC          =     No
	Parameters for left-handed eigenvectors:
	    Irr   Root  Ground-State?    EOM energy        R0
	  1   0     0        Yes       0.0000000000   1.0000000000
	Labels for eigenvector 1:
	LIA 0 -1, Lia 0 -1, LIJAB 0 -1, Lijab 0 -1, LIjAb 0 -1, 2LIjAb - LIjbA 0 -1
	Symmetry of left-hand state: A
	Symmetry of left-hand eigenvector: A

	          Solving Lambda Equations
	          ------------------------
	Iter     PseudoEnergy or Norm         RMS  
	----     ---------------------     --------
	   0        -2.077467047092961    0.000e+00
	   1        -2.017623231236209    4.022e-02
	   2        -2.011816242607556    8.464e-03
	   3        -2.010332904750454    4.973e-03
	   4        -2.009801053294610    1.898e-03
	   5        -2.009908827240729    1.080e-03
	   6        -2.009958986967156    4.358e-04
	   7        -2.009942953639920    2.207e-04
	   8        -2.009942998287225    9.906e-05
	   9        -2.009947018491666    4.791e-05
	  10        -2.009945736678945    2.057e-05
	  11        -2.009946270991157    1.017e-05
	  12        -2.009946269083967    4.907e-06
	  13        -2.009946044881232    2.303e-06
	  14        -2.009946035634010    1.157e-06
	  15        -2.009946026546401    4.948e-07
	  16        -2.009946018571682    2.360e-07
	  17        -2.009946020725623    9.622e-08

	Largest LIA Amplitudes:
	         48   2        -0.0165761816
	         49  51         0.0124452599
	         48   3         0.0116589129
	         34   2        -0.0100362891
	         50   0         0.0098493694
	         49   1        -0.0097774653
	         40   0        -0.0083102503
	         50  49         0.0081510689
	         34   3         0.0079660884
	         49  97        -0.0073108331

	Largest LIjAb Amplitudes:
	 49  49   1   1        -0.0715585889
	 50  50   1   1        -0.0320628781
	 50  50   2   2        -0.0311954227
	 50  50   2   3         0.0254009011
	 50  50   3   2         0.0254009011
	 49  50   2   1         0.0253211417
	 50  49   1   2         0.0253211417
	 50  50   3   3        -0.0215735930
	 49  50   3   1        -0.0204181983
	 50  49   1   3        -0.0204181983

	Iterations converged.

	Overlap <L|e^T> =        0.23187744145

			**************************
			*                        *
			*        CCDENSITY       *
			*                        *
			**************************


	Input parameters:
	-----------------
	Wave function    =   CCSD
	Reference wfn    =   RHF
	Dertype          = 1
	Tolerance        = 1.0e-14
	Cache Level      = 2
	AO Basis         = No
	OPDM Only        = No
	Relax OPDM       = Yes
	Compute Xi       = No
	Use Zeta         = No
	Xi connected     = Yes
	Compute NO       = No

	Nuclear Rep. energy (wfn)     =  874.525688691530263
	SCF energy          (wfn)     = -576.780646478843778
	Reference energy    (file100) = -576.781425097687702
	CCSD energy         (CC_INFO) =   -2.077252662405524
	Total CCSD energy   (CC_INFO) = -578.858677760093201
	Number of States = 1

	Ground?  State     EOM Energy       R0
	  Yes     0  A    0.0000000000   1.00000000

	Virial Theorem Data:
	--------------------
	Kinetic energy (ref)   =  575.784849174169949
	Kinetic energy (corr)  =    1.935002303642166
	Kinetic energy (total) =  577.719851477812085
	-V/T (ref)             =    2.001730813037105
	-V/T (corr)            =    2.073514309774002
	-V/T (total)           =    2.001971243119598
    Molecular point group: c1
    Full point group: C1

    Geometry (in Bohr), charge = 1, multiplicity = 1:

       Center              X                  Y                   Z       
    ------------   -----------------  -----------------  -----------------
         C            6.544829865179     0.901329502680     1.640977270702
         C            4.524240423052     2.782616792722     0.714328945210
         C            2.883345959158     1.341403985427    -1.214349474584
         C            3.378878453116     1.602842661414    -3.846454138303
         C            4.787865623140    -0.989421506387    -2.265991144858
         C            7.244581344380    -0.632041266362    -0.721000129017
         C            0.307369876137     0.437175563568    -0.419083815197
         C            0.019325570160    -1.281086997886     1.612145977883
         C           -2.372589317441    -2.023646341543     2.399236453377
         C           -4.565649095366    -1.049034942767     1.204810688869
         C           -4.294073642060     0.680428261916    -0.795126885962
         C           -1.862593235270     1.409302733817    -1.584383760118
         H           -1.701342549673     2.793243016940    -3.117511120498
         H           -5.934199890549     1.489500370262    -1.747883974943
         O           -6.774754708552    -1.900025429102     2.133316153904
         H           -2.625947737764    -3.364784153036     3.950438816553
         H            1.678465111142    -2.067954591759     2.567599321641
         H            1.995281637781     0.891329636720    -5.212297503156
         H            4.827990394451     2.905432131760    -4.552375952887
         H            5.736585501313    -0.349590230830     3.103473239633
         H            8.191907258339     1.858121189127     2.482849751818
         H            8.030755370824    -2.509957660498    -0.285766539331
         H            8.644098599636     0.388078745744    -1.881669826882
         H            3.723082282518    -2.775207545477    -2.240964443846
         H            3.305741125076     3.470962198564     2.252949636634
         H            5.401475417974     4.441495052055    -0.205139615192
         H            5.416495590623    -0.901459812536    -4.379965225204
         C           -9.052904020282    -0.979907851938     1.017856163182
         H          -10.595924637374    -1.906348716973     2.050287490970
         H           -9.217768681752     1.089041424502     1.234859088152
         H           -9.165198338168    -1.491672592360    -1.002043243046

	Presorting MO-basis TPDM.
	Sorting File: MO TPDM (AA|AA) nbuckets = 1
	Starting first half-transformation.
	Sorting half-transformed TPDM.
	First half integral transformation complete.


  -Total gradient:
     Atom            X                  Y                   Z
    ------   -----------------  -----------------  -----------------
       1        0.000943508249    -0.000577788882    -0.001532692532
       2       -0.000311981391     0.000477652997    -0.000207204858
       3        0.008792296626    -0.003705371479    -0.001807630383
       4        0.006604060708    -0.007031358461    -0.003430052988
       5       -0.018664862178     0.004822523631     0.029988687115
       6        0.001841618036     0.000170298593    -0.000802640099
       7       -0.002221315476     0.001635607415    -0.000515102699
       8       -0.000655822225    -0.000679495599     0.000257192599
       9        0.001494889717     0.000301007894    -0.000225759861
      10       -0.001885666404    -0.000396603882     0.000435256260
      11        0.000120301367    -0.000207468221    -0.000042600861
      12        0.000710268441     0.000072144799     0.000592577794
      13       -0.000080069498     0.000027479597    -0.000156806894
      14        0.000135877702     0.000045749919    -0.000115846571
      15        0.000699355140     0.000622067312    -0.000690057027
      16       -0.000177831143    -0.000092491223     0.000103047992
      17        0.000163853738     0.000003291875    -0.000037371198
      18       -0.001286501575     0.000573213214     0.000711759934
      19       -0.001695034983     0.002094943020    -0.001018278779
      20       -0.000075741301     0.000040072101     0.000514594037
      21        0.000253824672     0.000344726579     0.000149583492
      22       -0.000727897076     0.000010133493     0.000530304633
      23       -0.000214056104    -0.000243112585    -0.000254630598
      24        0.002251286869    -0.004737989117    -0.005134065453
      25       -0.000393625421    -0.000556327381     0.000776188450
      26       -0.000352063986     0.001372533622    -0.000009960170
      27        0.004714166815     0.005881814590    -0.018368012857
      28        0.000727956353    -0.000255998084     0.000198238505
      29       -0.000081601008     0.000020191205    -0.000031495217
      30       -0.000313103016    -0.000052909817     0.000000122810
      31       -0.000316091645     0.000021462872     0.000122655424


			-----------------------------------------
			 OPTKING 2.0: for geometry optimizations 
			  - R.A. King,  Bethel University        
			-----------------------------------------

	Internal coordinates to be generated automatically.
	Detected frag 1 with atoms:  1 2 3 4 5 6 7 8 9 10 11 12 13 14 15 16 17 18 19 20
	 21 22 23 24 25 26 27 28 29 30 31
	---Fragment 1 Bond Connectivity---
	 1 : 2 6 20 21
	 2 : 1 3 25 26
	 3 : 2 4 5 7
	 4 : 3 5 18 19
	 5 : 3 4 6 24 27
	 6 : 1 5 22 23
	 7 : 3 8 12
	 8 : 7 9 17
	 9 : 8 10 16
	 10 : 9 11 15
	 11 : 10 12 14
	 12 : 7 11 13
	 13 : 12
	 14 : 11
	 15 : 10 28
	 16 : 9
	 17 : 8
	 18 : 4
	 19 : 4
	 20 : 1
	 21 : 1
	 22 : 6
	 23 : 6
	 24 : 5
	 25 : 2
	 26 : 2
	 27 : 5
	 28 : 15 29 30 31
	 29 : 28
	 30 : 28
	 31 : 28

	---Fragment 1 Geometry and Gradient---
	 C           6.5448298652        0.9013295027        1.6409772707
	 C           4.5242404231        2.7826167927        0.7143289452
	 C           2.8833459592        1.3414039854       -1.2143494746
	 C           3.3788784531        1.6028426614       -3.8464541383
	 C           4.7878656231       -0.9894215064       -2.2659911449
	 C           7.2445813444       -0.6320412664       -0.7210001290
	 C           0.3073698761        0.4371755636       -0.4190838152
	 C           0.0193255702       -1.2810869979        1.6121459779
	 C          -2.3725893174       -2.0236463415        2.3992364534
	 C          -4.5656490954       -1.0490349428        1.2048106889
	 C          -4.2940736421        0.6804282619       -0.7951268860
	 C          -1.8625932353        1.4093027338       -1.5843837601
	 H          -1.7013425497        2.7932430169       -3.1175111205
	 H          -5.9341998905        1.4895003703       -1.7478839749
	 O          -6.7747547086       -1.9000254291        2.1333161539
	 H          -2.6259477378       -3.3647841530        3.9504388166
	 H           1.6784651111       -2.0679545918        2.5675993216
	 H           1.9952816378        0.8913296367       -5.2122975032
	 H           4.8279903945        2.9054321318       -4.5523759529
	 H           5.7365855013       -0.3495902308        3.1034732396
	 H           8.1919072583        1.8581211891        2.4828497518
	 H           8.0307553708       -2.5099576605       -0.2857665393
	 H           8.6440985996        0.3880787457       -1.8816698269
	 H           3.7230822825       -2.7752075455       -2.2409644438
	 H           3.3057411251        3.4709621986        2.2529496366
	 H           5.4014754180        4.4414950521       -0.2051396152
	 H           5.4164955906       -0.9014598125       -4.3799652252
	 C          -9.0529040203       -0.9799078519        1.0178561632
	 H         -10.5959246374       -1.9063487170        2.0502874910
	 H          -9.2177686818        1.0890414245        1.2348590882
	 H          -9.1651983382       -1.4916725924       -1.0020432430
	             0.0009435082       -0.0005777889       -0.0015326925
	            -0.0003119814        0.0004776530       -0.0002072049
	             0.0087922966       -0.0037053715       -0.0018076304
	             0.0066040607       -0.0070313585       -0.0034300530
	            -0.0186648622        0.0048225236        0.0299886871
	             0.0018416180        0.0001702986       -0.0008026401
	            -0.0022213155        0.0016356074       -0.0005151027
	            -0.0006558222       -0.0006794956        0.0002571926
	             0.0014948897        0.0003010079       -0.0002257599
	            -0.0018856664       -0.0003966039        0.0004352563
	             0.0001203014       -0.0002074682       -0.0000426009
	             0.0007102684        0.0000721448        0.0005925778
	            -0.0000800695        0.0000274796       -0.0001568069
	             0.0001358777        0.0000457499       -0.0001158466
	             0.0006993551        0.0006220673       -0.0006900570
	            -0.0001778311       -0.0000924912        0.0001030480
	             0.0001638537        0.0000032919       -0.0000373712
	            -0.0012865016        0.0005732132        0.0007117599
	            -0.0016950350        0.0020949430       -0.0010182788
	            -0.0000757413        0.0000400721        0.0005145940
	             0.0002538247        0.0003447266        0.0001495835
	            -0.0007278971        0.0000101335        0.0005303046
	            -0.0002140561       -0.0002431126       -0.0002546306
	             0.0022512869       -0.0047379891       -0.0051340655
	            -0.0003936254       -0.0005563274        0.0007761884
	            -0.0003520640        0.0013725336       -0.0000099602
	             0.0047141668        0.0058818146       -0.0183680129
	             0.0007279564       -0.0002559981        0.0001982385
	            -0.0000816010        0.0000201912       -0.0000314952
	            -0.0003131030       -0.0000529098        0.0000001228
	            -0.0003160916        0.0000214629        0.0001226554

	Previous optimization step data not found.  Starting new optimization.

	---Fragment 1 Intrafragment Coordinates---
	 - Coordinate -           - BOHR/RAD -       - ANG/DEG -
	 R(1,2)           =         2.912164	       1.541051
	 R(1,6)           =         2.901692	       1.535509
	 R(1,20)          =         2.087332	       1.104568
	 R(1,21)          =         2.082562	       1.102044
	 R(2,3)           =         2.913663	       1.541844
	 R(2,25)          =         2.079883	       1.100627
	 R(2,26)          =         2.089699	       1.105821
	 R(3,4)           =         2.691074	       1.424055
	 R(3,5)           =         3.188400	       1.687228
	 R(3,7)           =         2.843542	       1.504737
	 R(4,5)           =         3.347080	       1.771198
	 R(4,18)          =         2.070294	       1.095553
	 R(4,19)          =         2.072436	       1.096686
	 R(5,6)           =         2.924067	       1.547350
	 R(5,24)          =         2.079284	       1.100310
	 R(5,27)          =         2.207215	       1.168008
	 R(6,22)          =         2.081842	       1.101664
	 R(6,23)          =         2.084814	       1.103236
	 R(7,8)           =         2.676059	       1.416109
	 R(7,12)          =         2.647961	       1.401240
	 R(8,9)           =         2.625293	       1.389245
	 R(8,17)          =         2.069975	       1.095383
	 R(9,10)          =         2.680677	       1.418553
	 R(9,16)          =         2.066173	       1.093372
	 R(10,11)         =         2.657921	       1.406511
	 R(10,15)         =         2.542922	       1.345657
	 R(11,12)         =         2.658248	       1.406684
	 R(11,14)         =         2.062125	       1.091229
	 R(12,13)         =         2.071659	       1.096275
	 R(15,28)         =         2.698302	       1.427880
	 R(28,29)         =         2.074878	       1.097978
	 R(28,30)         =         2.086821	       1.104298
	 R(28,31)         =         2.086745	       1.104258
	 B(1,2,3)         =         1.856509	     106.370157
	 B(1,2,25)        =         1.965892	     112.637303
	 B(1,2,26)        =         1.940742	     111.196323
	 B(1,6,5)         =         1.867187	     106.981933
	 B(1,6,22)        =         1.979662	     113.426251
	 B(1,6,23)        =         1.935302	     110.884651
	 B(2,1,6)         =         1.823152	     104.458943
	 B(2,1,20)        =         1.919233	     109.963965
	 B(2,1,21)        =         1.961230	     112.370224
	 B(2,3,4)         =         2.089415	     119.714688
	 B(2,3,5)         =         1.816801	     104.095003
	 B(2,3,7)         =         2.074125	     118.838608
	 B(3,2,25)        =         1.900169	     108.871655
	 B(3,2,26)        =         1.915398	     109.744219
	 B(3,4,5)         =         1.093284	      62.640586
	 B(3,4,18)        =         2.081541	     119.263505
	 B(3,4,19)        =         2.121138	     121.532229
	 B(3,5,4)         =         0.847471	      48.556524
	 B(3,5,6)         =         1.811345	     103.782441
	 B(3,5,24)        =         1.894404	     108.541347
	 B(3,5,27)        =         2.045292	     117.186621
	 B(3,7,8)         =         2.110606	     120.928788
	 B(3,7,12)        =         2.097347	     120.169128
	 B(4,3,5)         =         1.200837	      68.802890
	 B(4,3,7)         =         2.061506	     118.115575
	 B(4,5,6)         =         2.104253	     120.564815
	 B(4,5,24)        =         2.043480	     117.082791
	 B(4,5,27)        =         1.199078	      68.702115
	 B(5,3,7)         =         1.983299	     113.634690
	 B(5,4,18)        =         1.903584	     109.067352
	 B(5,4,19)        =         1.931870	     110.688017
	 B(5,6,22)        =         1.893878	     108.511240
	 B(5,6,23)        =         1.906724	     109.247250
	 B(6,1,20)        =         1.925188	     110.305158
	 B(6,1,21)        =         1.961798	     112.402720
	 B(6,5,24)        =         2.128045	     121.927991
	 B(6,5,27)        =         1.835780	     105.182421
	 B(7,8,9)         =         2.102787	     120.480804
	 B(7,8,17)        =         2.103843	     120.541302
	 B(7,12,11)       =         2.115602	     121.215080
	 B(7,12,13)       =         2.102661	     120.473604
	 B(8,7,12)        =         2.073220	     118.786737
	 B(8,9,10)        =         2.104764	     120.594071
	 B(8,9,16)        =         2.118118	     121.359242
	 B(9,8,17)        =         2.076437	     118.971077
	 B(9,10,11)       =         2.080872	     119.225204
	 B(9,10,15)       =         2.011244	     115.235785
	 B(10,9,16)       =         2.060301	     118.046545
	 B(10,11,12)      =         2.088953	     119.688199
	 B(10,11,14)      =         2.119613	     121.444853
	 B(10,15,28)      =         2.058274	     117.930394
	 B(11,10,15)      =         2.191068	     125.538975
	 B(11,12,13)      =         2.064731	     118.300377
	 B(12,11,14)      =         2.074587	     118.865067
	 B(15,28,29)      =         1.844101	     105.659231
	 B(15,28,30)      =         1.940986	     111.210292
	 B(15,28,31)      =         1.941162	     111.220393
	 B(18,4,19)       =         2.047208	     117.296355
	 B(20,1,21)       =         1.873747	     107.357822
	 B(22,6,23)       =         1.879966	     107.714106
	 B(24,5,27)       =         1.763590	     101.046262
	 B(25,2,26)       =         1.884630	     107.981328
	 B(29,28,30)      =         1.909416	     109.401468
	 B(29,28,31)      =         1.909352	     109.397796
	 B(30,28,31)      =         1.917235	     109.849457
	 D(1,2,3,4)       =        -1.698975	     -97.344119
	 D(1,2,3,5)       =        -0.418167	     -23.959207
	 D(1,2,3,7)       =         1.808850	     103.639471
	 D(1,6,5,3)       =         0.362728	      20.782802
	 D(1,6,5,4)       =         1.230394	      70.496372
	 D(1,6,5,24)      =        -1.776879	    -101.807666
	 D(1,6,5,27)      =         2.520703	     144.425641
	 D(2,1,6,5)       =        -0.635974	     -36.438623
	 D(2,1,6,22)      =        -2.723575	    -156.049371
	 D(2,1,6,23)      =         1.441681	      82.602255
	 D(2,3,4,5)       =         1.650292	      94.554758
	 D(2,3,4,18)      =        -2.930029	    -167.878294
	 D(2,3,4,19)      =        -0.070249	      -4.024953
	 D(2,3,5,4)       =        -2.038433	    -116.793622
	 D(2,3,5,6)       =         0.035174	       2.015350
	 D(2,3,5,24)      =         2.322294	     133.057634
	 D(2,3,5,27)      =        -1.979165	    -113.397777
	 D(2,3,7,8)       =        -1.052691	     -60.314748
	 D(2,3,7,12)      =         2.019927	     115.733286
	 D(3,2,1,6)       =         0.658575	      37.733568
	 D(3,2,1,20)      =        -1.407129	     -80.622549
	 D(3,2,1,21)      =         2.790016	     159.856164
	 D(3,4,5,6)       =        -1.417844	     -81.236498
	 D(3,4,5,24)      =         1.595745	      91.429462
	 D(3,4,5,27)      =        -3.085010	    -176.758065
	 D(3,5,4,18)      =        -1.986124	    -113.796510
	 D(3,5,4,19)      =         2.019755	     115.723430
	 D(3,5,6,22)      =         2.504701	     143.508799
	 D(3,5,6,23)      =        -1.733327	     -99.312336
	 D(3,7,8,9)       =         3.094970	     177.328744
	 D(3,7,8,17)      =        -0.063369	      -3.630791
	 D(3,7,12,11)     =        -3.090107	    -177.050114
	 D(3,7,12,13)     =         0.030129	       1.726240
	 D(4,3,2,25)      =         2.461452	     141.030789
	 D(4,3,2,26)      =         0.402146	      23.041247
	 D(4,3,5,6)       =         2.073608	     118.808972
	 D(4,3,5,24)      =        -1.922458	    -110.148744
	 D(4,3,5,27)      =         0.059269	       3.395845
	 D(4,3,7,8)       =         2.449273	     140.333007
	 D(4,3,7,12)      =        -0.761294	     -43.618960
	 D(4,5,3,7)       =         1.962773	     112.458594
	 D(4,5,6,22)      =        -2.910819	    -166.777631
	 D(4,5,6,23)      =        -0.865662	     -49.598765
	 D(5,3,2,25)      =        -2.540925	    -145.584299
	 D(5,3,2,26)      =         1.682954	      96.426159
	 D(5,3,4,18)      =         1.702864	      97.566948
	 D(5,3,4,19)      =        -1.720541	     -98.579711
	 D(5,3,7,8)       =         1.093809	      62.670664
	 D(5,3,7,12)      =        -2.116758	    -121.281303
	 D(5,4,3,7)       =        -1.854918	    -106.278995
	 D(5,6,1,20)      =         1.425665	      81.684585
	 D(5,6,1,21)      =        -2.767043	    -158.539892
	 D(6,1,2,25)      =         2.738889	     156.926754
	 D(6,1,2,26)      =        -1.426102	     -81.709639
	 D(6,5,3,7)       =        -2.246805	    -128.732434
	 D(6,5,4,18)      =         2.879217	     164.966992
	 D(6,5,4,19)      =         0.601911	      34.486932
	 D(7,3,2,25)      =        -0.313908	     -17.985621
	 D(7,3,2,26)      =        -2.373214	    -135.975163
	 D(7,3,4,18)      =        -0.152054	      -8.712047
	 D(7,3,4,19)      =         2.707726	     155.141294
	 D(7,3,5,24)      =         0.040314	       2.309850
	 D(7,3,5,27)      =         2.022041	     115.854439
	 D(7,8,9,10)      =        -0.014497	      -0.830631
	 D(7,8,9,16)      =         3.129531	     179.308902
	 D(7,12,11,10)    =         0.003632	       0.208078
	 D(7,12,11,14)    =         3.136644	     179.716479
	 D(8,7,12,11)     =        -0.016023	      -0.918029
	 D(8,7,12,13)     =         3.104213	     177.858325
	 D(8,9,10,11)     =         0.001802	       0.103235
	 D(8,9,10,15)     =        -3.138643	    -179.831006
	 D(9,8,7,12)      =         0.021417	       1.227092
	 D(9,10,11,12)    =         0.003659	       0.209657
	 D(9,10,11,14)    =        -3.129126	    -179.285712
	 D(9,10,15,28)    =         3.136686	     179.718889
	 D(10,9,8,17)     =        -3.139603	    -179.886015
	 D(10,11,12,13)   =        -3.117056	    -178.594145
	 D(10,15,28,29)   =        -3.141264	    -179.981158
	 D(10,15,28,30)   =        -1.071129	     -61.371171
	 D(10,15,28,31)   =         1.071770	      61.407886
	 D(11,10,9,16)    =         3.141038	     179.968230
	 D(11,10,15,28)   =        -0.003675	      -0.210584
	 D(12,7,8,17)     =        -3.136923	    -179.732444
	 D(12,11,10,15)   =        -3.139209	    -179.863444
	 D(13,12,11,14)   =         0.015957	       0.914256
	 D(14,11,10,15)   =         0.011191	       0.641188
	 D(15,10,9,16)    =         0.000593	       0.033990
	 D(16,9,8,17)     =         0.004425	       0.253519
	 D(18,4,5,24)     =        -0.390379	     -22.367048
	 D(18,4,5,27)     =         1.212051	      69.445425
	 D(19,4,5,24)     =        -2.667685	    -152.847109
	 D(19,4,5,27)     =        -1.065255	     -61.034635
	 D(20,1,2,25)     =         0.673185	      38.570637
	 D(20,1,2,26)     =         2.791379	     159.934244
	 D(20,1,6,22)     =        -0.661936	     -37.926163
	 D(20,1,6,23)     =        -2.779865	    -159.274537
	 D(21,1,2,25)     =        -1.412855	     -80.950650
	 D(21,1,2,26)     =         0.705339	      40.412957
	 D(21,1,6,22)     =         1.428541	      81.849360
	 D(21,1,6,23)     =        -0.689388	     -39.499014
	 D(22,6,5,24)     =         0.365094	      20.918331
	 D(22,6,5,27)     =        -1.620510	     -92.848362
	 D(23,6,5,24)     =         2.410251	     138.097196
	 D(23,6,5,27)     =         0.424647	      24.330503
	 R(1,8)           =         6.880841	       3.641184

	Current energy   :      -578.8586777601

	Generating empirical Hessian (Schlegel '84) for each fragment.
	Taking PRFO optimization step.
	Maximizing along 1 lowest eigenvalue of Hessian.

 RFO min eigenvalues
 -0.003856 -0.000000 -0.000000 -0.000000 -0.000000 -0.000000 -0.000000 -0.000000
 -0.000000 -0.000000 -0.000000 -0.000000 -0.000000 -0.000000 -0.000000 -0.000000
 -0.000000 -0.000000 -0.000000 -0.000000 -0.000000 -0.000000 -0.000000 -0.000000
 -0.000000 -0.000000 -0.000000 -0.000000 -0.000000 -0.000000 -0.000000 -0.000000
 -0.000000 -0.000000 -0.000000 -0.000000 -0.000000 -0.000000 -0.000000 -0.000000
 -0.000000 -0.000000 -0.000000 -0.000000 -0.000000 -0.000000 -0.000000 -0.000000
 -0.000000 -0.000000 -0.000000 -0.000000 -0.000000 -0.000000 -0.000000  0.000000
  0.000000  0.000000  0.000000  0.000000  0.000000  0.000000  0.000000  0.000000
  0.000000  0.000000  0.000000  0.000000  0.000000  0.000000  0.000000  0.000000
  0.000000  0.000000  0.000000  0.000000  0.000000  0.000000  0.000000  0.000000
  0.000000  0.000000  0.000000  0.000000  0.000000  0.000000  0.000000  0.000000
  0.000000  0.000000  0.000000  0.000000  0.000000  0.000000  0.000000  0.000000
  0.000000  0.000000  0.000000  0.000000  0.000000  0.000000  0.000000  0.000000
  0.000000  0.000000  0.000000  0.000000  0.000000  0.000000  0.000000  0.000000
  0.000000  0.000000  0.000000  0.000000  0.001258  0.003438  0.004448  0.006121
  0.011893  0.012134  0.014883  0.015840  0.016423  0.016947  0.017185  0.017302
  0.017615  0.017695  0.017779  0.018341  0.023769  0.026376  0.026764  0.027933
  0.035850  0.037886  0.045184  0.049352  0.050390  0.055783  0.057386  0.061886
  0.067258  0.069065  0.072491  0.076584  0.078553  0.087554  0.088001  0.094585
  0.095470  0.102267  0.107934  0.112327  0.115153  0.150246  0.159965  0.159979
  0.159995  0.160000  0.160000  0.160000  0.160002  0.161471  0.202307  0.219989
  0.230438  0.240838  0.250000  0.250011  0.257053  0.263466  0.272902  0.274420
  0.280116  0.308292  0.325446  0.330468  0.331820  0.332112  0.332156  0.333268
  0.334571  0.334988  0.336130  0.336504  0.339067  0.340514  0.340975  0.341788
  0.341978  0.344259  0.346710  0.398775  0.406026  0.412955  0.433949  0.440587
  0.449703  0.467592  0.559560

 RFO max eigenvalues
 -0.000000  0.000000
	|RFO target step|  :        0.3496167756
	RFO gradient       :       -0.0110300943
	RFO hessian        :        0.0276961963
	Projected Delta(E) :       -0.0019279677

	Back-transformation to cartesian coordinates...
	Successfully converged to displaced geometry.

	--- Internal Coordinate Step in ANG or DEG, aJ/ANG or AJ/DEG ---
	 ---------------------------------------------------------------------------
	   Coordinate                Previous        Force       Change         New 
	   ----------                --------       ------       ------       ------
	    1 R(1,2)          =      1.541051    -0.000512    -0.000887     1.540164
	    2 R(1,6)          =      1.535509     0.010212     0.001562     1.537071
	    3 R(1,20)         =      1.104568    -0.003015    -0.000577     1.103991
	    4 R(1,21)         =      1.102044    -0.003457    -0.000656     1.101388
	    5 R(2,3)          =      1.541844    -0.004375    -0.000682     1.541162
	    6 R(2,25)         =      1.100627    -0.005114    -0.000966     1.099661
	    7 R(2,26)         =      1.105821    -0.007794    -0.001497     1.104323
	    8 R(3,4)          =      1.424055    -0.004014    -0.001777     1.422278
	    9 R(3,5)          =      1.687228     0.042237     0.017269     1.704497
	   10 R(3,7)          =      1.504737    -0.010247    -0.001245     1.503493
	   11 R(4,5)          =      1.771198     0.027752     0.013289     1.784488
	   12 R(4,18)         =      1.095553    -0.001591    -0.000296     1.095257
	   13 R(4,19)         =      1.096686    -0.003942    -0.000735     1.095951
	   14 R(5,6)          =      1.547350    -0.007553    -0.000774     1.546576
	   15 R(5,24)         =      1.100310    -0.023518    -0.004438     1.095871
	   16 R(5,27)         =      1.168008    -0.157929    -0.036831     1.131177
	   17 R(6,22)         =      1.101664     0.001426     0.000270     1.101934
	   18 R(6,23)         =      1.103236     0.000996     0.000190     1.103426
	   19 R(7,8)          =      1.416109    -0.001921    -0.000009     1.416100
	   20 R(7,12)         =      1.401240     0.004689     0.000732     1.401973
	   21 R(8,9)          =      1.389245     0.006255     0.000860     1.390105
	   22 R(8,17)         =      1.095383    -0.000930    -0.000173     1.095211
	   23 R(9,10)         =      1.418553    -0.005150    -0.000848     1.417705
	   24 R(9,16)         =      1.093372    -0.001312    -0.000242     1.093130
	   25 R(10,11)        =      1.406511    -0.002114    -0.000400     1.406111
	   26 R(10,15)        =      1.345657     0.007312     0.000834     1.346490
	   27 R(11,12)        =      1.406684    -0.002590    -0.000390     1.406294
	   28 R(11,14)        =      1.091229     0.000301     0.000055     1.091285
	   29 R(12,13)        =      1.096275    -0.001056    -0.000197     1.096078
	   30 R(15,28)        =      1.427880     0.001856     0.000286     1.428166
	   31 R(28,29)        =      1.097978    -0.000296    -0.000056     1.097923
	   32 R(28,30)        =      1.104298     0.000228     0.000044     1.104342
	   33 R(28,31)        =      1.104258     0.000881     0.000168     1.104427
	   34 B(1,2,3)        =    106.370157     0.000028     0.088700   106.458857
	   35 B(1,2,25)       =    112.637303     0.000014     0.342879   112.980182
	   36 B(1,2,26)       =    111.196323    -0.000037    -0.462898   110.733425
	   37 B(1,6,5)        =    106.981933    -0.000026    -0.048761   106.933171
	   38 B(1,6,22)       =    113.426251     0.000009    -0.021400   113.404851
	   39 B(1,6,23)       =    110.884651     0.000004     0.035643   110.920295
	   40 B(2,1,6)        =    104.458943     0.000058    -0.296883   104.162060
	   41 B(2,1,20)       =    109.963965    -0.000012     0.183832   110.147797
	   42 B(2,1,21)       =    112.370224    -0.000009     0.075324   112.445549
	   43 B(2,3,4)        =    119.714688    -0.000042    -0.341268   119.373420
	   44 B(2,3,5)        =    104.095003    -0.000072    -0.544832   103.550171
	   45 B(2,3,7)        =    118.838608     0.000031     0.277899   119.116507
	   46 B(3,2,25)       =    108.871655    -0.000024     0.104162   108.975817
	   47 B(3,2,26)       =    109.744219     0.000010    -0.156378   109.587841
	   48 B(3,4,5)        =     62.640586     0.000093     0.391467    63.032054
	   49 B(3,4,18)       =    119.263505    -0.000008     0.534631   119.798136
	   50 B(3,4,19)       =    121.532229    -0.000021     0.078062   121.610291
	   51 B(3,5,4)        =     48.556524    -0.000100    -0.509717    48.046806
	   52 B(3,5,6)        =    103.782441     0.000004    -0.274099   103.508343
	   53 B(3,5,24)       =    108.541347    -0.000118    -3.153011   105.388336
	   54 B(3,5,27)       =    117.186621     0.000150     1.933272   119.119893
	   55 B(3,7,8)        =    120.928788     0.000036     0.273344   121.202132
	   56 B(3,7,12)       =    120.169128    -0.000035    -0.228789   119.940339
	   57 B(4,3,5)        =     68.802890     0.000006     0.118250    68.921140
	   58 B(4,3,7)        =    118.115575     0.000025     0.268722   118.384297
	   59 B(4,5,6)        =    120.564815    -0.000019    -0.220225   120.344591
	   60 B(4,5,24)       =    117.082791    -0.000044     0.148647   117.231437
	   61 B(4,5,27)       =     68.702115     0.000247     2.372001    71.074116
	   62 B(5,3,7)        =    113.634690     0.000020    -0.172585   113.462105
	   63 B(5,4,18)       =    109.067352    -0.000026    -0.432915   108.634437
	   64 B(5,4,19)       =    110.688017    -0.000137    -1.499876   109.188141
	   65 B(5,6,22)       =    108.511240     0.000014     0.022377   108.533616
	   66 B(5,6,23)       =    109.247250     0.000021     0.221094   109.468344
	   67 B(6,1,20)       =    110.305158    -0.000005     0.088152   110.393310
	   68 B(6,1,21)       =    112.402720    -0.000047    -0.134083   112.268636
	   69 B(6,5,24)       =    121.927991     0.000037    -0.800192   121.127799
	   70 B(6,5,27)       =    105.182421    -0.000036     1.732402   106.914823
	   71 B(7,8,9)        =    120.480804    -0.000007     0.031122   120.511926
	   72 B(7,8,17)       =    120.541302     0.000013     0.017954   120.559256
	   73 B(7,12,11)      =    121.215080    -0.000003     0.033348   121.248427
	   74 B(7,12,13)      =    120.473604    -0.000006    -0.069523   120.404081
	   75 B(8,7,12)       =    118.786737    -0.000001    -0.062800   118.723936
	   76 B(8,9,10)       =    120.594071    -0.000019    -0.054244   120.539827
	   77 B(8,9,16)       =    121.359242    -0.000003    -0.021241   121.338001
	   78 B(9,8,17)       =    118.971077    -0.000006    -0.048712   118.922364
	   79 B(9,10,11)      =    119.225204     0.000037     0.076184   119.301388
	   80 B(9,10,15)      =    115.235785     0.000026     0.093503   115.329288
	   81 B(10,9,16)      =    118.046545     0.000022     0.075029   118.121574
	   82 B(10,11,12)     =    119.688199    -0.000008    -0.024810   119.663389
	   83 B(10,11,14)     =    121.444853    -0.000010    -0.057947   121.386906
	   84 B(10,15,28)     =    117.930394    -0.000112    -0.336690   117.593704
	   85 B(11,10,15)     =    125.538975    -0.000064    -0.169828   125.369147
	   86 B(11,12,13)     =    118.300377     0.000008     0.028632   118.329009
	   87 B(12,11,14)     =    118.865067     0.000018     0.082970   118.948037
	   88 B(15,28,29)     =    105.659231     0.000008     0.095808   105.755039
	   89 B(15,28,30)     =    111.210292    -0.000029    -0.170399   111.039894
	   90 B(15,28,31)     =    111.220393    -0.000030    -0.093306   111.127086
	   91 B(18,4,19)      =    117.296355     0.000050    -0.103259   117.193096
	   92 B(20,1,21)      =    107.357822     0.000014     0.086414   107.444235
	   93 B(22,6,23)      =    107.714106    -0.000021    -0.193194   107.520912
	   94 B(24,5,27)      =    101.046262    -0.000011     0.818119   101.864381
	   95 B(25,2,26)      =    107.981328     0.000009     0.079036   108.060363
	   96 B(29,28,30)     =    109.401468     0.000021     0.113475   109.514943
	   97 B(29,28,31)     =    109.397796     0.000021     0.136763   109.534560
	   98 B(30,28,31)     =    109.849457     0.000010    -0.067499   109.781958
	   99 D(1,2,3,4)      =    -97.344119     0.000004    -0.826305   -98.170424
	  100 D(1,2,3,5)      =    -23.959207    -0.000004    -1.001802   -24.961008
	  101 D(1,2,3,7)      =    103.639471    -0.000007    -1.514447   102.125024
	  102 D(1,6,5,3)      =     20.782802    -0.000006     0.544368    21.327170
	  103 D(1,6,5,4)      =     70.496372    -0.000031    -0.168976    70.327397
	  104 D(1,6,5,24)     =   -101.807666     0.000024     5.496410   -96.311256
	  105 D(1,6,5,27)     =    144.425641     0.000030     3.497696   147.923337
	  106 D(2,1,6,5)      =    -36.438623    -0.000002    -1.230718   -37.669341
	  107 D(2,1,6,22)     =   -156.049371    -0.000003    -1.213016  -157.262387
	  108 D(2,1,6,23)     =     82.602255     0.000001    -0.972955    81.629300
	  109 D(2,3,4,5)      =     94.554758    -0.000016    -0.472377    94.082381
	  110 D(2,3,4,18)     =   -167.878294    -0.000012    -1.045901  -168.924195
	  111 D(2,3,4,19)     =     -4.024953     0.000010     1.223199    -2.801754
	  112 D(2,3,5,4)      =   -116.793622     0.000005     0.188988  -116.604634
	  113 D(2,3,5,6)      =      2.015350     0.000003     0.241202     2.256553
	  114 D(2,3,5,24)     =    133.057634    -0.000003    -2.664081   130.393552
	  115 D(2,3,5,27)     =   -113.397777    -0.000005    -2.792449  -116.190226
	  116 D(2,3,7,8)      =    -60.314748     0.000010     1.316927   -58.997821
	  117 D(2,3,7,12)     =    115.733286     0.000008     1.013409   116.746695
	  118 D(3,2,1,6)      =     37.733568     0.000009     1.487697    39.221266
	  119 D(3,2,1,20)     =    -80.622549     0.000005     1.459037   -79.163511
	  120 D(3,2,1,21)     =    159.856164     0.000004     1.174975   161.031140
	  121 D(3,4,5,6)      =    -81.236498     0.000011     0.575587   -80.660911
	  122 D(3,4,5,24)     =     91.429462    -0.000041    -4.944890    86.484572
	  123 D(3,4,5,27)     =   -176.758065    -0.000012    -2.859217  -179.617282
	  124 D(3,5,4,18)     =   -113.796510    -0.000004    -0.839105  -114.635615
	  125 D(3,5,4,19)     =    115.723430     0.000010     0.738850   116.462279
	  126 D(3,5,6,22)     =    143.508799    -0.000005     0.502597   144.011396
	  127 D(3,5,6,23)     =    -99.312336    -0.000006     0.407030   -98.905306
	  128 D(3,7,8,9)      =    177.328744    -0.000002    -0.251151   177.077593
	  129 D(3,7,8,17)     =     -3.630791    -0.000002    -0.225714    -3.856505
	  130 D(3,7,12,11)    =   -177.050114     0.000003     0.434105  -176.616009
	  131 D(3,7,12,13)    =      1.726240     0.000000     0.067688     1.793929
	  132 D(4,3,2,25)     =    141.030789    -0.000000    -1.346953   139.683836
	  133 D(4,3,2,26)     =     23.041247    -0.000001    -1.413232    21.628015
	  134 D(4,3,5,6)      =    118.808972    -0.000002     0.052214   118.861186
	  135 D(4,3,5,24)     =   -110.148744    -0.000008    -2.853070  -113.001814
	  136 D(4,3,5,27)     =      3.395845    -0.000010    -2.981437     0.414408
	  137 D(4,3,7,8)      =    140.333007     0.000003     0.763945   141.096951
	  138 D(4,3,7,12)     =    -43.618960     0.000001     0.460427   -43.158533
	  139 D(4,5,3,7)      =    112.458594     0.000006     0.377663   112.836257
	  140 D(4,5,6,22)     =   -166.777631    -0.000031    -0.210747  -166.988377
	  141 D(4,5,6,23)     =    -49.598765    -0.000032    -0.306314   -49.905079
	  142 D(5,3,2,25)     =   -145.584299    -0.000008    -1.522449  -147.106749
	  143 D(5,3,2,26)     =     96.426159    -0.000009    -1.588728    94.837431
	  144 D(5,3,4,18)     =     97.566948     0.000004    -0.573524    96.993424
	  145 D(5,3,4,19)     =    -98.579711     0.000026     1.695576   -96.884135
	  146 D(5,3,7,8)      =     62.670664    -0.000003     0.614259    63.284923
	  147 D(5,3,7,12)     =   -121.281303    -0.000005     0.310742  -120.970561
	  148 D(5,4,3,7)      =   -106.278995    -0.000005     0.213902  -106.065092
	  149 D(5,6,1,20)     =     81.684585     0.000001    -1.137547    80.547039
	  150 D(5,6,1,21)     =   -158.539892    -0.000002    -1.056366  -159.596258
	  151 D(6,1,2,25)     =    156.926754     0.000009     1.870229   158.796982
	  152 D(6,1,2,26)     =    -81.709639     0.000007     1.878144   -79.831495
	  153 D(6,5,3,7)      =   -128.732434     0.000004     0.429877  -128.302557
	  154 D(6,5,4,18)     =    164.966992     0.000007    -0.263518   164.703474
	  155 D(6,5,4,19)     =     34.486932     0.000021     1.314437    35.801369
	  156 D(7,3,2,25)     =    -17.985621    -0.000011    -2.035095   -20.020717
	  157 D(7,3,2,26)     =   -135.975163    -0.000012    -2.101374  -138.076537
	  158 D(7,3,4,18)     =     -8.712047    -0.000001    -0.359622    -9.071669
	  159 D(7,3,4,19)     =    155.141294     0.000021     1.909478   157.050772
	  160 D(7,3,5,24)     =      2.309850    -0.000002    -2.475407    -0.165557
	  161 D(7,3,5,27)     =    115.854439    -0.000004    -2.603774   113.250665
	  162 D(7,8,9,10)     =     -0.830631    -0.000001    -0.164402    -0.995033
	  163 D(7,8,9,16)     =    179.308902    -0.000000    -0.017452   179.291450
	  164 D(7,12,11,10)   =      0.208078    -0.000002    -0.247955    -0.039876
	  165 D(7,12,11,14)   =    179.716479    -0.000001    -0.219502   179.496977
	  166 D(8,7,12,11)    =     -0.918029     0.000001     0.151540    -0.766488
	  167 D(8,7,12,13)    =    177.858325    -0.000001    -0.214876   177.643449
	  168 D(8,9,10,11)    =      0.103235     0.000000     0.066306     0.169541
	  169 D(8,9,10,15)    =   -179.831006     0.000001     0.145260  -179.685746
	  170 D(9,8,7,12)     =      1.227092     0.000000     0.055427     1.282519
	  171 D(9,10,11,12)   =      0.209657     0.000001     0.137123     0.346779
	  172 D(9,10,11,14)   =   -179.285712     0.000001     0.107243  -179.178469
	  173 D(9,10,15,28)   =    179.718889    -0.000000    -0.075323   179.643566
	  174 D(10,9,8,17)    =   -179.886015    -0.000001    -0.190046  -180.076061
	  175 D(10,11,12,13)  =   -178.594145     0.000001     0.112241  -178.481903
	  176 D(10,15,28,29)  =   -179.981158     0.000000     0.046586  -179.934572
	  177 D(10,15,28,30)  =    -61.371171     0.000003     0.148691   -61.222479
	  178 D(10,15,28,31)  =     61.407886    -0.000003    -0.124531    61.283356
	  179 D(11,10,9,16)   =    179.968230    -0.000001    -0.076131   179.892100
	  180 D(11,10,15,28)  =     -0.210584     0.000000     0.008912    -0.201673
	  181 D(12,7,8,17)    =   -179.732444     0.000001     0.080865  -179.651579
	  182 D(12,11,10,15)  =   -179.863444     0.000000     0.049818  -179.813626
	  183 D(13,12,11,14)  =      0.914256     0.000001     0.140694     1.054950
	  184 D(14,11,10,15)  =      0.641188     0.000000     0.019938     0.661125
	  185 D(15,10,9,16)   =      0.033990    -0.000000     0.002823     0.036813
	  186 D(16,9,8,17)    =      0.253519    -0.000000    -0.043097     0.210422
	  187 D(18,4,5,24)    =    -22.367048    -0.000045    -5.783995   -28.151043
	  188 D(18,4,5,27)    =     69.445425    -0.000015    -3.698322    65.747103
	  189 D(19,4,5,24)    =   -152.847109    -0.000031    -4.206040  -157.053149
	  190 D(19,4,5,27)    =    -61.034635    -0.000001    -2.120367   -63.155003
	  191 D(20,1,2,25)    =     38.570637     0.000004     1.841569    40.412205
	  192 D(20,1,2,26)    =    159.934244     0.000003     1.849485   161.783728
	  193 D(20,1,6,22)    =    -37.926163     0.000000    -1.119844   -39.046007
	  194 D(20,1,6,23)    =   -159.274537     0.000004    -0.879784  -160.154321
	  195 D(21,1,2,25)    =    -80.950650     0.000003     1.557507   -79.393144
	  196 D(21,1,2,26)    =     40.412957     0.000002     1.565422    41.978379
	  197 D(21,1,6,22)    =     81.849360    -0.000003    -1.038664    80.810696
	  198 D(21,1,6,23)    =    -39.499014     0.000001    -0.798603   -40.297617
	  199 D(22,6,5,24)    =     20.918331     0.000025     5.454640    26.372970
	  200 D(22,6,5,27)    =    -92.848362     0.000030     3.455926   -89.392437
	  201 D(23,6,5,24)    =    138.097196     0.000024     5.359072   143.456269
	  202 D(23,6,5,27)    =     24.330503     0.000029     3.360358    27.690862
	  203 R(1,8)          =      3.641184     0.000780    -0.019551     3.621633
	 ---------------------------------------------------------------------------
	Successfully symmetrized geometry.

  ==> Convergence Check <==

  Measures of convergence in internal coordinates in au.
  Criteria marked as inactive (o), active & met (*), and active & unmet ( ).
  --------------------------------------------------------------------------------------------- ~
   Step     Total Energy     Delta E     MAX Force     RMS Force      MAX Disp      RMS Disp    ~
  --------------------------------------------------------------------------------------------- ~
    Convergence Criteria    1.00e-06 *    3.00e-04 *             o    1.20e-03 *             o  ~
  --------------------------------------------------------------------------------------------- ~
      1    -578.85867776   -5.79e+02      1.92e-02      1.58e-03 o    1.01e-01      2.45e-02 o  ~
  ---------------------------------------------------------------------------------------------

	Writing optimization data to binary file.
	Structure for next step:
	Cartesian Geometry (in Angstrom)
	    C     3.4004831837   0.3985241195   1.0373989777
	    C     2.3880922994   1.4313062979   0.5077460873
	    C     1.5540789611   0.7120442245  -0.5703377167
	    C     1.8893778058   0.8840692525  -1.9417805745
	    C     2.5865221440  -0.5323045001  -1.1097523672
	    C     3.8390312588  -0.3752961713  -0.2161824554
	    C     0.1701426029   0.2350409677  -0.2272955563
	    C    -0.0482490065  -0.6866183507   0.8254096766
	    C    -1.3387426273  -1.0717937570   1.1698772400
	    C    -2.4579898429  -0.5324126624   0.4870580514
	    C    -2.2505599879   0.3964214658  -0.5480213859
	    C    -0.9401403479   0.7705153928  -0.8951773265
	    H    -0.8045587421   1.5150435877  -1.6880724768
	    H    -3.0877100240   0.8429234079  -1.0872039709
	    O    -3.6580070591  -0.9729770568   0.9100208046
	    H    -1.5222851549  -1.7908940378   1.9724600020
	    H     0.7970711735  -1.1190711589   1.3712165656
	    H     1.2026808897   0.5307570744  -2.7184436915
	    H     2.6994190061   1.5522209869  -2.2556505206
	    H     2.9100655797  -0.2804303315   1.7566406736
	    H     4.2503898473   0.8701678540   1.5553437628
	    H     4.2388070710  -1.3778640951   0.0058430018
	    H     4.6177491108   0.1780359781  -0.7684233529
	    H     1.9811089756  -1.4453188547  -1.0812300631
	    H     1.7128022822   1.8100572936   1.2886330823
	    H     2.9094210278   2.2945826587   0.0577454718
	    H     2.9445962693  -0.5241172536  -2.1827282419
	    C    -4.8195057137  -0.4547435237   0.2603962000
	    H    -5.6754475930  -0.9361797348   0.7513310614
	    H    -4.8894105070   0.6400729015   0.3871278679
	    H    -4.8203716874  -0.7073804785  -0.8147465800
			--------------------------
			 OPTKING Finished Execution 
			--------------------------

    Structure for next step:
    Molecular point group: c1
    Full point group: C1

    Geometry (in Angstrom), charge = 1, multiplicity = 1:

    C            3.407360211863     0.395335720571     1.056271834356
    C            2.394969323568     1.428117902995     0.526618941914
    C            1.560955982071     0.708855826750    -0.551464866304
    C            1.896254828004     0.880880855434    -1.922907729526
    C            2.593399169014    -0.535492902663    -1.090879518969
    C            3.845908288686    -0.378484573297    -0.197309603675
    C            0.177019618410     0.231852568092    -0.208422704571
    C           -0.041371991828    -0.689806753963     0.844282532460
    C           -1.331865617785    -1.074982161684     1.188750097198
    C           -2.451112837728    -0.535601065057     0.505930905914
    C           -2.243682981897     0.393233066884    -0.529148535430
    C           -0.933263336768     0.767326995354    -0.876304477378
    H           -0.797681730462     1.511855193151    -1.669199630843
    H           -3.080833021284     0.839735010696    -1.068331122545
    O           -3.651130058701    -0.976165461139     0.928893660736
    H           -1.515408146091    -1.794082445325     1.991332862312
    H            0.803948191441    -1.122259563859     1.390089423599
    H            1.209557909205     0.527568675952    -2.699570849556
    H            2.706296031579     1.549032592447    -2.236777676840
    H            2.916942605971    -0.283618733138     1.775513533144
    H            4.257266878840     0.866979456886     1.574216621463
    H            4.245684102446    -1.381052501011     0.024715854460
    H            4.624626143811     0.174847578254    -0.749550503288
    H            1.987985998193    -1.448507260872    -1.062357214728
    H            1.719679303777     1.806868900195     1.307505939981
    H            2.916298054056     2.291394267240     0.076618324652
    H            2.951473295689    -0.527305656161    -2.163855397918
    C           -4.812628717843    -0.457931926047     0.279269053611
    H           -5.668570600462    -0.939368138965     0.770203916895
    H           -4.882533511406     0.636884503493     0.406000721970
    H           -4.813494691510    -0.710568881798    -0.795873730615


Scratch directory: /scratch1/maxbuskirk/
gradient() will perform analytic gradient computation.

*** tstart() called on skylm001.palmetto.clemson.edu
*** at Fri Feb 18 04:56:13 2022

   => Loading Basis Set <=

    Name: CC-PVDZ
    Role: ORBITAL
    Keyword: BASIS
    atoms 1-12, 28            entry C          line   138 file /home/maxbuskirk/.conda/envs/psifour/share/psi4/basis/cc-pvdz.gbs 
    atoms 13-14, 16-27, 29-31 entry H          line    22 file /home/maxbuskirk/.conda/envs/psifour/share/psi4/basis/cc-pvdz.gbs 
    atoms 15                  entry O          line   198 file /home/maxbuskirk/.conda/envs/psifour/share/psi4/basis/cc-pvdz.gbs 


         ---------------------------------------------------------
                                   SCF
               by Justin Turney, Rob Parrish, Andy Simmonett
                          and Daniel G. A. Smith
                              RHF Reference
                        1 Threads,  59127 MiB Core
[...]
    H            4.132627432498    -1.439597187641    -0.031383622736
    H            4.644826189372     0.064654470753    -0.825810749677
    H            1.946159730575    -1.429926823675    -1.171137382553
    H            1.754834229851     1.868036591583     1.197135931684
    H            2.950329509081     2.268370286921    -0.069362227380
    H            2.985578861572    -0.588845150852    -2.288615137446
    C           -4.789992795297    -0.374232348721     0.571141410228
    H           -5.618603633420    -0.847812139127     1.113963499412
    H           -4.774584958290     0.706720006926     0.796080706466
    H           -4.923637739713    -0.532029930521    -0.513482846665


Scratch directory: /scratch1/maxbuskirk/
gradient() will perform analytic gradient computation.

*** tstart() called on skylm001.palmetto.clemson.edu
*** at Sun Feb 20 05:02:28 2022

   => Loading Basis Set <=

    Name: CC-PVDZ
    Role: ORBITAL
    Keyword: BASIS
    atoms 1-12, 28            entry C          line   138 file /home/maxbuskirk/.conda/envs/psifour/share/psi4/basis/cc-pvdz.gbs 
    atoms 13-14, 16-27, 29-31 entry H          line    22 file /home/maxbuskirk/.conda/envs/psifour/share/psi4/basis/cc-pvdz.gbs 
    atoms 15                  entry O          line   198 file /home/maxbuskirk/.conda/envs/psifour/share/psi4/basis/cc-pvdz.gbs 


         ---------------------------------------------------------
                                   SCF
               by Justin Turney, Rob Parrish, Andy Simmonett
                          and Daniel G. A. Smith
                              RHF Reference
                        1 Threads,  59127 MiB Core
         ---------------------------------------------------------

  ==> Geometry <==

    Molecular point group: c1
    Full point group: C1

    Geometry (in Angstrom), charge = 1, multiplicity = 1:

       Center              X                  Y                   Z               Mass       
    ------------   -----------------  -----------------  -----------------  -----------------
         C            3.388749382565     0.390669214835     0.948743360021    12.000000000000
         C            2.400410498707     1.442149825576     0.415150903198    12.000000000000
         C            1.521832780638     0.736032298563    -0.626943751708    12.000000000000
         C            1.824255240471     0.907674940739    -1.990429600716    12.000000000000
         C            2.599400289279    -0.547958268537    -1.243311058783    12.000000000000
         C            3.808390762428    -0.418437394639    -0.292431906104    12.000000000000
         C            0.168836426799     0.226909643248    -0.233864023557    12.000000000000
         C           -0.001001050457    -0.836946041283     0.685248702776    12.000000000000
         C           -1.277093031764    -1.224540624120     1.079649195637    12.000000000000
         C           -2.420164855163    -0.547799953771     0.585638584882    12.000000000000
         C           -2.257671504434     0.520322048461    -0.315928249147    12.000000000000
         C           -0.964205797698     0.895233599275    -0.719566509973    12.000000000000
         H           -0.856833027287     1.736846053844    -1.413799539604     1.007825032230
         H           -3.112326765731     1.069404917063    -0.713282732635     1.007825032230
         O           -3.600214421260    -1.011990331378     1.041421700354    15.994914619570
         H           -1.424341930049    -2.052422729225     1.777930261182     1.007825032230
         H            0.862734072465    -1.376961093650     1.087503003189     1.007825032230
         H            1.130371486046     0.546118360766    -2.757448200060     1.007825032230
         H            2.647153566644     1.554127540056    -2.315601452630     1.007825032230
         H            2.892988162420    -0.262816120157     1.687847675221     1.007825032230
         H            4.252632110793     0.857155050687     1.448253264173     1.007825032230
         H            4.132627432498    -1.439597187641    -0.031383622736     1.007825032230
         H            4.644826189372     0.064654470753    -0.825810749677     1.007825032230
         H            1.946159730575    -1.429926823675    -1.171137382553     1.007825032230
         H            1.754834229851     1.868036591583     1.197135931684     1.007825032230
         H            2.950329509081     2.268370286921    -0.069362227380     1.007825032230
         H            2.985578861572    -0.588845150852    -2.288615137446     1.007825032230
         C           -4.789992795297    -0.374232348721     0.571141410228    12.000000000000
         H           -5.618603633420    -0.847812139127     1.113963499412     1.007825032230
         H           -4.774584958290     0.706720006926     0.796080706466     1.007825032230
         H           -4.923637739713    -0.532029930521    -0.513482846665     1.007825032230

  Running in c1 symmetry.

  Rotational constants: A =      0.06361  B =      0.01125  C =      0.01057 [cm^-1]
  Rotational constants: A =   1907.07877  B =    337.37555  C =    316.90423 [MHz]
  Nuclear repulsion =  873.749587011685207

  Charge       = 1
  Multiplicity = 1
  Electrons    = 102
  Nalpha       = 51
  Nbeta        = 51

  ==> Algorithm <==

  SCF Algorithm Type is DF.
  DIIS enabled.
  MOM disabled.
  Fractional occupation disabled.
  Guess Type is READ.
  Energy threshold   = 1.00e-10
  Density threshold  = 1.00e-10
  Integral threshold = 1.00e-12

  ==> Primary Basis <==

  Basis Set: CC-PVDZ
    Blend: CC-PVDZ
    Number of shells: 135
    Number of basis functions: 281
    Number of Cartesian functions: 295
    Spherical Harmonics?: true
    Max angular momentum: 2

   => Loading Basis Set <=

    Name: (CC-PVDZ AUX)
    Role: JKFIT
    Keyword: DF_BASIS_SCF
    atoms 1-12, 28            entry C          line   121 file /home/maxbuskirk/.conda/envs/psifour/share/psi4/basis/cc-pvdz-jkfit.gbs 
    atoms 13-14, 16-27, 29-31 entry H          line    51 file /home/maxbuskirk/.conda/envs/psifour/share/psi4/basis/cc-pvdz-jkfit.gbs 
    atoms 15                  entry O          line   221 file /home/maxbuskirk/.conda/envs/psifour/share/psi4/basis/cc-pvdz-jkfit.gbs 

   => Loading Basis Set <=

    Name: CC-PVDZ
    Role: ORBITAL
    Keyword: BASIS
    atoms 1-12, 28            entry C          line   138 file /home/maxbuskirk/.conda/envs/psifour/share/psi4/basis/cc-pvdz.gbs 
    atoms 13-14, 16-27, 29-31 entry H          line    22 file /home/maxbuskirk/.conda/envs/psifour/share/psi4/basis/cc-pvdz.gbs 
    atoms 15                  entry O          line   198 file /home/maxbuskirk/.conda/envs/psifour/share/psi4/basis/cc-pvdz.gbs 

  Reading orbitals from file /scratch1/maxbuskirk/1OMe.mol.2521775.180.npy, no projection.

  ==> Integral Setup <==

  DFHelper Memory: AOs need 0.708 GiB; user supplied 43.306 GiB. Using in-core AOs.

  ==> MemDFJK: Density-Fitted J/K Matrices <==

    J tasked:                   Yes
    K tasked:                   Yes
    wK tasked:                   No
    OpenMP threads:               1
    Memory [MiB]:             44345
    Algorithm:                 Core
    Schwarz Cutoff:           1E-12
    Mask sparsity (%):      15.6026
    Fitting Condition:        1E-10

   => Auxiliary Basis Set <=

  Basis Set: (CC-PVDZ AUX)
    Blend: CC-PVDZ-JKFIT
    Number of shells: 489
    Number of basis functions: 1371
    Number of Cartesian functions: 1559
    Spherical Harmonics?: true
    Max angular momentum: 3

  Minimum eigenvalue in the overlap matrix is 3.3214727139E-04.
  Reciprocal condition number of the overlap matrix is 4.7561700840E-05.
    Using symmetric orthogonalization.

  ==> Pre-Iterations <==

  SCF Guess: Orbitals guess was supplied from a previous computation.

   -------------------------------------------------------
    Irrep   Nso     Nmo     Nalpha   Nbeta   Ndocc  Nsocc
   -------------------------------------------------------
     A        281     281      51      51      51       0
   -------------------------------------------------------
    Total     281     281      51      51      51       0
   -------------------------------------------------------

  ==> Iterations <==

                           Total Energy        Delta E     RMS |[F,P]|

   @DF-RHF iter   0:  -576.74128813123264   -5.76741e+02   1.04702e-03 
   @DF-RHF iter   1:  -576.78685463708734   -4.55665e-02   1.72800e-04 DIIS
   @DF-RHF iter   2:  -576.78946046589795   -2.60583e-03   6.82185e-05 DIIS
   @DF-RHF iter   3:  -576.78989865974199   -4.38194e-04   3.13432e-05 DIIS
   @DF-RHF iter   4:  -576.78998164133725   -8.29816e-05   6.80506e-06 DIIS
   @DF-RHF iter   5:  -576.78998633661570   -4.69528e-06   2.92410e-06 DIIS
   @DF-RHF iter   6:  -576.78998713192379   -7.95308e-07   1.05486e-06 DIIS
   @DF-RHF iter   7:  -576.78998722221922   -9.02954e-08   3.73513e-07 DIIS
   @DF-RHF iter   8:  -576.78998723776556   -1.55463e-08   1.55846e-07 DIIS
   @DF-RHF iter   9:  -576.78998724183703   -4.07147e-09   6.69764e-08 DIIS
   @DF-RHF iter  10:  -576.78998724283406   -9.97034e-10   3.05507e-08 DIIS
   @DF-RHF iter  11:  -576.78998724302892   -1.94859e-10   1.10191e-08 DIIS
   @DF-RHF iter  12:  -576.78998724305484   -2.59206e-11   3.94776e-09 DIIS
   @DF-RHF iter  13:  -576.78998724305541   -5.68434e-13   1.66548e-09 DIIS
   @DF-RHF iter  14:  -576.78998724306075   -5.34328e-12   5.33607e-10 DIIS
   @DF-RHF iter  15:  -576.78998724305654    4.20641e-12   2.10217e-10 DIIS
   @DF-RHF iter  16:  -576.78998724305893   -2.38742e-12   9.25925e-11 DIIS
  Energy and wave function converged.


  ==> Post-Iterations <==

    Orbital Energies [Eh]
    ---------------------

    Doubly Occupied:                                                      

       1A    -20.696881     2A    -11.490879     3A    -11.477488  
       4A    -11.456970     5A    -11.434256     6A    -11.401640  
       7A    -11.398072     8A    -11.389360     9A    -11.389168  
      10A    -11.387466    11A    -11.384900    12A    -11.383466  
      13A    -11.363235    14A    -11.361492    15A     -1.524539  
      16A     -1.360516    17A     -1.274518    18A     -1.212842  
      19A     -1.171646    20A     -1.148282    21A     -1.135566  
      22A     -1.055827    23A     -1.032589    24A     -0.981055  
      25A     -0.966279    26A     -0.948096    27A     -0.914220  
      28A     -0.857438    29A     -0.824794    30A     -0.813798  
      31A     -0.789984    32A     -0.786180    33A     -0.775548  
      34A     -0.754156    35A     -0.753379    36A     -0.741588  
      37A     -0.717526    38A     -0.705620    39A     -0.693475  
      40A     -0.682316    41A     -0.663317    42A     -0.643771  
      43A     -0.643603    44A     -0.639744    45A     -0.633940  
      46A     -0.623719    47A     -0.610111    48A     -0.595116  
      49A     -0.582293    50A     -0.468986    51A     -0.435197  

    Virtual:                                                              

      52A     -0.052205    53A     -0.002691    54A      0.005045  
      55A      0.019062    56A      0.045390    57A      0.050698  
      58A      0.058811    59A      0.079364    60A      0.087278  
      61A      0.096964    62A      0.104073    63A      0.110936  
      64A      0.118977    65A      0.125625    66A      0.139584  
      67A      0.151665    68A      0.158519    69A      0.162731  
      70A      0.175442    71A      0.184649    72A      0.191279  
      73A      0.200558    74A      0.207908    75A      0.232055  
      76A      0.237093    77A      0.245335    78A      0.274731  
      79A      0.293205    80A      0.314286    81A      0.320171  
      82A      0.346766    83A      0.349110    84A      0.360280  
      85A      0.385233    86A      0.423523    87A      0.456202  
      88A      0.465463    89A      0.475417    90A      0.485078  
      91A      0.498785    92A      0.513926    93A      0.519831  
      94A      0.532821    95A      0.539016    96A      0.551956  
      97A      0.562157    98A      0.577148    99A      0.580618  
     100A      0.585221   101A      0.601578   102A      0.605375  
     103A      0.614305   104A      0.626550   105A      0.629936  
     106A      0.638446   107A      0.655310   108A      0.663080  
     109A      0.675441   110A      0.679572   111A      0.691851  
     112A      0.696321   113A      0.702133   114A      0.708321  
     115A      0.718461   116A      0.721920   117A      0.725119  
     118A      0.737223   119A      0.742930   120A      0.752720  
     121A      0.753453   122A      0.757276   123A      0.761550  
     124A      0.767742   125A      0.774067   126A      0.779538  
     127A      0.793036   128A      0.796332   129A      0.800075  
     130A      0.815688   131A      0.816978   132A      0.838483  
     133A      0.849859   134A      0.863556   135A      0.874412  
     136A      0.904977   137A      0.930739   138A      0.962748  
     139A      0.984604   140A      1.003758   141A      1.006833  
     142A      1.034424   143A      1.038735   144A      1.044370  
     145A      1.065122   146A      1.075847   147A      1.086194  
     148A      1.108412   149A      1.116050   150A      1.117384  
     151A      1.140442   152A      1.150472   153A      1.155236  
     154A      1.193335   155A      1.207861   156A      1.212753  
     157A      1.224933   158A      1.259231   159A      1.281389  
     160A      1.296307   161A      1.304751   162A      1.311673  
     163A      1.326068   164A      1.349634   165A      1.393365  
     166A      1.402771   167A      1.415520   168A      1.454738  
     169A      1.466696   170A      1.479077   171A      1.493853  
     172A      1.510231   173A      1.527054   174A      1.543448  
     175A      1.562366   176A      1.582106   177A      1.587088  
     178A      1.607736   179A      1.626645   180A      1.634580  
     181A      1.647298   182A      1.657009   183A      1.662062  
     184A      1.668985   185A      1.681246   186A      1.696276  
     187A      1.708250   188A      1.728451   189A      1.740407  
     190A      1.743786   191A      1.751370   192A      1.755379  
     193A      1.763256   194A      1.766952   195A      1.773123  
     196A      1.780076   197A      1.793238   198A      1.796426  
     199A      1.806087   200A      1.818908   201A      1.826880  
     202A      1.838472   203A      1.845295   204A      1.847839  
     205A      1.852558   206A      1.867763   207A      1.869652  
     208A      1.883271   209A      1.887525   210A      1.912566  
     211A      1.918673   212A      1.925435   213A      1.931723  
     214A      1.943902   215A      1.953677   216A      1.969187  
     217A      1.983216   218A      1.985279   219A      1.990796  
     220A      2.007170   221A      2.019368   222A      2.024355  
     223A      2.044613   224A      2.052531   225A      2.075872  
     226A      2.087914   227A      2.114046   228A      2.121286  
     229A      2.130422   230A      2.143379   231A      2.158266  
     232A      2.190013   233A      2.201189   234A      2.215947  
     235A      2.232394   236A      2.244855   237A      2.254882  
     238A      2.267507   239A      2.278879   240A      2.293359  
     241A      2.306101   242A      2.315933   243A      2.322832  
     244A      2.356431   245A      2.367991   246A      2.384889  
     247A      2.398026   248A      2.430594   249A      2.444609  
     250A      2.461947   251A      2.471275   252A      2.492185  
     253A      2.543914   254A      2.581286   255A      2.602841  
     256A      2.615487   257A      2.629379   258A      2.633978  
     259A      2.646313   260A      2.655724   261A      2.673284  
     262A      2.700123   263A      2.720816   264A      2.728207  
     265A      2.767429   266A      2.782917   267A      2.809401  
     268A      2.834256   269A      2.861095   270A      2.864291  
     271A      2.900046   272A      2.940853   273A      2.945983  
     274A      3.024530   275A      3.110128   276A      3.144947  
     277A      3.298643   278A      3.309919   279A      3.516525  
     280A      3.694341   281A      3.878619  

    Final Occupation by Irrep:
              A 
    DOCC [    51 ]

  @DF-RHF Final Energy:  -576.78998724305893

   => Energetics <=

    Nuclear Repulsion Energy =            873.7495870116852075
    One-Electron Energy =               -2500.7254598248232469
    Two-Electron Energy =                1050.1858855700791082
    Total Energy =                       -576.7899872430589312

Computation Completed


Properties will be evaluated at   0.000000,   0.000000,   0.000000 [a0]

Properties computed using the SCF density matrix

  Nuclear Dipole Moment: [e a0]
     X:     8.8792      Y:     2.0023      Z:    -2.7992

  Electronic Dipole Moment: [e a0]
     X:    -6.4287      Y:    -1.2294      Z:     0.9881

  Dipole Moment: [e a0]
     X:     2.4505      Y:     0.7729      Z:    -1.8111     Total:     3.1436

  Dipole Moment: [D]
     X:     6.2285      Y:     1.9644      Z:    -4.6034     Total:     7.9903


*** tstop() called on skylm001.palmetto.clemson.edu at Sun Feb 20 05:02:51 2022
Module time:
	user time   =      21.81 seconds =       0.36 minutes
	system time =       0.91 seconds =       0.02 minutes
	total time  =         23 seconds =       0.38 minutes
Total time:
	user time   =  146288.87 seconds =    2438.15 minutes
	system time =   21785.37 seconds =     363.09 minutes
	total time  =     215177 seconds =    3586.28 minutes
 MINTS: Wrapper to libmints.
   by Justin Turney

   Calculation information:
      Number of threads:                 1
      Number of atoms:                  31
      Number of AO shells:             135
      Number of SO shells:             135
      Number of primitives:            393
      Number of atomic orbitals:       295
      Number of basis functions:       281

      Number of irreps:                  1
      Integral cutoff                 1.00e-12
      Number of functions per irrep: [ 281 ]

 OEINTS: Overlap, kinetic, potential, dipole, and quadrupole integrals
         stored in file 35.

      Computing two-electron integrals...done
      Computed 429665544 non-zero two-electron integrals.
        Stored in file 33.


*** tstart() called on skylm001.palmetto.clemson.edu
*** at Sun Feb 20 05:09:39 2022


	Wfn Parameters:
	--------------------
	Wavefunction         = CCSD
	Number of irreps     = 1
	Number of MOs        = 281
	Number of active MOs = 281
	AO-Basis             = NONE
	Semicanonical        = false
	Reference            = RHF
	Print Level          = 1

	IRREP	# MOs	# FZDC	# DOCC	# SOCC	# VIRT	# FZVR
	-----	-----	------	------	------	------	------
	 A	   281	    0	    51	    0	    230	    0
	Transforming integrals...
	IWL integrals will be deleted.
	(OO|OO)...
	Presorting SO-basis two-electron integrals.
	Sorting File: SO Ints (nn|nn) nbuckets = 1
	Constructing frozen core operators
	Starting first half-transformation.
	Sorting half-transformed integrals.
	First half integral transformation complete.
	Starting second half-transformation.
	Two-electron integral transformation complete.
	(OO|OV)...
	Starting second half-transformation.
	Two-electron integral transformation complete.
	(OO|VV)...
	Starting second half-transformation.
	Two-electron integral transformation complete.
	(OV|OO)...
	Starting first half-transformation.
	Sorting half-transformed integrals.
	First half integral transformation complete.
	Starting second half-transformation.
	Two-electron integral transformation complete.
	(OV|OV)...
	Starting second half-transformation.
	Two-electron integral transformation complete.
	(OV|VV)...
	Starting second half-transformation.
	Two-electron integral transformation complete.
	(VV|OO)...
	Starting first half-transformation.
