
    -----------------------------------------------------------------------
          Psi4: An Open-Source Ab Initio Electronic Structure Package
                               Psi4 1.4 release

                         Git: Rev {HEAD} 9485035 


    D. G. A. Smith, L. A. Burns, A. C. Simmonett, R. M. Parrish,
    M. C. Schieber, R. Galvelis, P. Kraus, H. Kruse, R. Di Remigio,
    A. Alenaizan, A. M. James, S. Lehtola, J. P. Misiewicz, M. Scheurer,
    R. A. Shaw, J. B. Schriber, Y. Xie, Z. L. Glick, D. A. Sirianni,
    J. S. O'Brien, J. M. Waldrop, A. Kumar, E. G. Hohenstein,
    B. P. Pritchard, B. R. Brooks, H. F. Schaefer III, A. Yu. Sokolov,
    K. Patkowski, A. E. DePrince III, U. Bozkaya, R. A. King,
    F. A. Evangelista, J. M. Turney, T. D. Crawford, C. D. Sherrill,
    J. Chem. Phys. 152(18) 184108 (2020). https://doi.org/10.1063/5.0006002

                            Additional Code Authors
    E. T. Seidl, C. L. Janssen, E. F. Valeev, M. L. Leininger,
    J. F. Gonthier, R. M. Richard, H. R. McAlexander, M. Saitow, X. Wang,
    P. Verma, and M. H. Lechner

             Previous Authors, Complete List of Code Contributors,
                       and Citations for Specific Modules
    https://github.com/psi4/psi4/blob/master/codemeta.json
    https://github.com/psi4/psi4/graphs/contributors
    http://psicode.org/psi4manual/master/introduction.html#citing-psifour

    -----------------------------------------------------------------------


    Psi4 started on: Wednesday, 08 December 2021 08:35PM

    Process ID: 2945438
    Host:       skystd02.palmetto.clemson.edu
    PSIDATADIR: /home/maxbuskirk/.conda/envs/psifour/share/psi4
    Memory:     500.0 MiB
    Threads:    1
    
  ==> Input File <==

--------------------------------------------------------------------------
molecule mol {
0 1
 C     0.355130     0.111221    -1.467412
 C    -0.000000    -0.000000     0.000000
 C     0.828100     0.881905     0.953535
 C     2.091555     0.051810     1.254924
 C     2.370953    -0.722993    -0.049363
 C     0.983556    -0.988346    -0.633510
 C    -1.373576    -0.413221     0.414448
 C    -1.542792    -1.321567     1.480545
 C    -2.825059    -1.692334     1.911870
 C    -3.961673    -1.159299     1.279913
 C    -3.805653    -0.253936     0.218219
 C    -2.519836     0.117392    -0.208007
 H    -2.398432     0.829298    -1.030811
 H    -4.686419     0.165723    -0.277661
 O    -5.224199    -1.526822     1.698665
 H    -2.939181    -2.402495     2.736730
 H    -0.656700    -1.746978     1.964470
 H     0.659437    -2.015061    -0.827996
 H    -0.405740    -0.188168    -2.193765
 H     0.996446     0.943276    -1.777222
 H     2.921789    -1.659184     0.134099
 H     2.979683    -0.115336    -0.742780
 H     1.856488    -0.672951     2.054626
 H     2.945544     0.661232     1.596113
 H     0.256631     1.122533     1.863868
 H     1.092347     1.837771     0.466059
 H    -5.873437    -1.081092     1.172715
}

set scf_type df
set basis cc-pVTZ
set reference rhf

mol.update_geometry()
mol.symmetrize(1e-3)

e, wfn = optimize('ccsd', return_wfn=True)
oeprop(wfn, "MULLIKEN_CHARGES")
mol.print_out()
print_variables()
--------------------------------------------------------------------------

Scratch directory: /local_scratch/pbs.4122844.pbs02/
gradient() will perform analytic gradient computation.

*** tstart() called on skystd02.palmetto.clemson.edu
*** at Wed Dec  8 20:35:10 2021

   => Loading Basis Set <=

    Name: CC-PVTZ
    Role: ORBITAL
    Keyword: BASIS
    atoms 1-12         entry C          line   186 file /home/maxbuskirk/.conda/envs/psifour/share/psi4/basis/cc-pvtz.gbs 
    atoms 13-14, 16-27 entry H          line    23 file /home/maxbuskirk/.conda/envs/psifour/share/psi4/basis/cc-pvtz.gbs 
    atoms 15           entry O          line   262 file /home/maxbuskirk/.conda/envs/psifour/share/psi4/basis/cc-pvtz.gbs 


         ---------------------------------------------------------
                                   SCF
               by Justin Turney, Rob Parrish, Andy Simmonett
                          and Daniel G. A. Smith
                              RHF Reference
                        1 Threads,    500 MiB Core
         ---------------------------------------------------------

  ==> Geometry <==

    Molecular point group: c1
    Full point group: C1

    Geometry (in Angstrom), charge = 0, multiplicity = 1:

       Center              X                  Y                   Z               Mass       
    ------------   -----------------  -----------------  -----------------  -----------------
         C            1.501735541197     0.647962265286    -2.008527353370    12.000000000000
         C            1.146605541197     0.536741265286    -0.541115353370    12.000000000000
         C            1.974705541197     1.418646265286     0.412419646630    12.000000000000
         C            3.238160541197     0.588551265286     0.713808646630    12.000000000000
         C            3.517558541197    -0.186251734714    -0.590478353370    12.000000000000
         C            2.130161541197    -0.451604734714    -1.174625353370    12.000000000000
         C           -0.226970458803     0.123520265286    -0.126667353370    12.000000000000
         C           -0.396186458803    -0.784825734714     0.939429646630    12.000000000000
         C           -1.678453458803    -1.155592734714     1.370754646630    12.000000000000
         C           -2.815067458803    -0.622557734714     0.738797646630    12.000000000000
         C           -2.659047458803     0.282805265286    -0.322896353370    12.000000000000
         C           -1.373230458803     0.654133265286    -0.749122353370    12.000000000000
         H           -1.251826458803     1.366039265286    -1.571926353370     1.007825032230
         H           -3.539813458803     0.702464265286    -0.818776353370     1.007825032230
         O           -4.077593458803    -0.990080734714     1.157549646630    15.994914619570
         H           -1.792575458803    -1.865753734714     2.195614646630     1.007825032230
         H            0.489905541197    -1.210236734714     1.423354646630     1.007825032230
         H            1.806042541197    -1.478319734714    -1.369111353370     1.007825032230
         H            0.740865541197     0.348573265286    -2.734880353370     1.007825032230
         H            2.143051541197     1.480017265286    -2.318337353370     1.007825032230
         H            4.068394541197    -1.122442734714    -0.407016353370     1.007825032230
         H            4.126288541197     0.421405265286    -1.283895353370     1.007825032230
         H            3.003093541197    -0.136209734714     1.513510646630     1.007825032230
         H            4.092149541197     1.197973265286     1.054997646630     1.007825032230
         H            1.403236541197     1.659274265286     1.322752646630     1.007825032230
         H            2.238952541197     2.374512265286    -0.075056353370     1.007825032230
         H           -4.726831458803    -0.544350734714     0.631599646630     1.007825032230

  Running in c1 symmetry.

  Rotational constants: A =      0.07296  B =      0.01437  C =      0.01333 [cm^-1]
  Rotational constants: A =   2187.24793  B =    430.84088  C =    399.56464 [MHz]
  Nuclear repulsion =  759.887152103648532

  Charge       = 0
  Multiplicity = 1
  Electrons    = 94
  Nalpha       = 47
  Nbeta        = 47

  ==> Algorithm <==

  SCF Algorithm Type is DF.
  DIIS enabled.
  MOM disabled.
  Fractional occupation disabled.
  Guess Type is SAD.
  Energy threshold   = 1.00e-10
  Density threshold  = 1.00e-10
  Integral threshold = 1.00e-12

  ==> Primary Basis <==

  Basis Set: CC-PVTZ
    Blend: CC-PVTZ
    Number of shells: 214
    Number of basis functions: 586
    Number of Cartesian functions: 665
    Spherical Harmonics?: true
    Max angular momentum: 3

   => Loading Basis Set <=

    Name: (CC-PVTZ AUX)
    Role: JKFIT
    Keyword: DF_BASIS_SCF
    atoms 1-12         entry C          line   125 file /home/maxbuskirk/.conda/envs/psifour/share/psi4/basis/cc-pvtz-jkfit.gbs 
    atoms 13-14, 16-27 entry H          line    51 file /home/maxbuskirk/.conda/envs/psifour/share/psi4/basis/cc-pvtz-jkfit.gbs 
    atoms 15           entry O          line   229 file /home/maxbuskirk/.conda/envs/psifour/share/psi4/basis/cc-pvtz-jkfit.gbs 

  ==> Integral Setup <==

  ==> DiskDFJK: Density-Fitted J/K Matrices <==

    J tasked:                  Yes
    K tasked:                  Yes
    wK tasked:                  No
    OpenMP threads:              1
    Integrals threads:           1
    Memory [MiB]:              375
    Algorithm:                Disk
    Integral Cache:           NONE
    Schwarz Cutoff:          1E-12
    Fitting Condition:       1E-10

   => Auxiliary Basis Set <=

  Basis Set: (CC-PVTZ AUX)
    Blend: CC-PVTZ-JKFIT
    Number of shells: 465
    Number of basis functions: 1447
    Number of Cartesian functions: 1738
    Spherical Harmonics?: true
    Max angular momentum: 4

  Minimum eigenvalue in the overlap matrix is 3.5546881110E-05.
  Reciprocal condition number of the overlap matrix is 3.7012736612E-06.
    Using symmetric orthogonalization.

  ==> Pre-Iterations <==

  SCF Guess: Superposition of Atomic Densities via on-the-fly atomic UHF (no occupation information).

   -------------------------
    Irrep   Nso     Nmo    
   -------------------------
     A        586     586 
   -------------------------
    Total     586     586
   -------------------------

  ==> Iterations <==

                           Total Energy        Delta E     RMS |[F,P]|

   @DF-RHF iter SAD:  -537.49305052991133   -5.37493e+02   0.00000e+00 
   @DF-RHF iter   1:  -537.22863233415546    2.64418e-01   1.27332e-03 DIIS
   @DF-RHF iter   2:  -537.50097994631722   -2.72348e-01   6.29036e-04 DIIS
   @DF-RHF iter   3:  -537.56542357345540   -6.44436e-02   1.45914e-04 DIIS
   @DF-RHF iter   4:  -537.57033291216101   -4.90934e-03   6.24716e-05 DIIS
   @DF-RHF iter   5:  -537.57110674994215   -7.73838e-04   1.17543e-05 DIIS
   @DF-RHF iter   6:  -537.57114474952766   -3.79996e-05   4.27431e-06 DIIS
   @DF-RHF iter   7:  -537.57114945823309   -4.70871e-06   1.23029e-06 DIIS
   @DF-RHF iter   8:  -537.57115003547460   -5.77242e-07   4.03798e-07 DIIS
   @DF-RHF iter   9:  -537.57115010769530   -7.22207e-08   1.50831e-07 DIIS
   @DF-RHF iter  10:  -537.57115011804683   -1.03515e-08   6.34862e-08 DIIS
   @DF-RHF iter  11:  -537.57115012115696   -3.11013e-09   2.83812e-08 DIIS
   @DF-RHF iter  12:  -537.57115012195550   -7.98536e-10   1.41402e-08 DIIS
   @DF-RHF iter  13:  -537.57115012215513   -1.99634e-10   5.39225e-09 DIIS
   @DF-RHF iter  14:  -537.57115012218583   -3.06954e-11   1.58123e-09 DIIS
   @DF-RHF iter  15:  -537.57115012218526    5.68434e-13   5.34394e-10 DIIS
   @DF-RHF iter  16:  -537.57115012218890   -3.63798e-12   2.06745e-10 DIIS
   @DF-RHF iter  17:  -537.57115012218696    1.93268e-12   1.09627e-10 DIIS
   @DF-RHF iter  18:  -537.57115012218776   -7.95808e-13   5.91410e-11 DIIS
  Energy and wave function converged.


  ==> Post-Iterations <==

    Orbital Energies [Eh]
    ---------------------

    Doubly Occupied:                                                      

       1A    -20.582991     2A    -11.303795     3A    -11.240404  
       4A    -11.240192     5A    -11.235312     6A    -11.234729  
       7A    -11.233609     8A    -11.233057     9A    -11.226621  
      10A    -11.225337    11A    -11.222243    12A    -11.221627  
      13A    -11.220881    14A     -1.398988    15A     -1.178423  
      16A     -1.133012    17A     -1.032802    18A     -1.012254  
      19A     -1.004596    20A     -0.948687    21A     -0.843252  
      22A     -0.842823    23A     -0.811186    24A     -0.771946  
      25A     -0.740069    26A     -0.728021    27A     -0.687450  
      28A     -0.653227    29A     -0.629672    30A     -0.616721  
      31A     -0.597852    32A     -0.584005    33A     -0.583542  
      34A     -0.570980    35A     -0.563539    36A     -0.558585  
      37A     -0.540880    38A     -0.491736    39A     -0.488574  
      40A     -0.481608    41A     -0.470805    42A     -0.467923  
      43A     -0.457839    44A     -0.405877    45A     -0.384562  
      46A     -0.338502    47A     -0.301108  

    Virtual:                                                              

      48A      0.118003    49A      0.138566    50A      0.141212  
      51A      0.143509    52A      0.157595    53A      0.164373  
      54A      0.173642    55A      0.184915    56A      0.188334  
      57A      0.203899    58A      0.212077    59A      0.214067  
      60A      0.218799    61A      0.235738    62A      0.260329  
      63A      0.268276    64A      0.280956    65A      0.284118  
      66A      0.306536    67A      0.313369    68A      0.331774  
      69A      0.341046    70A      0.350760    71A      0.355876  
      72A      0.383965    73A      0.391772    74A      0.404114  
      75A      0.415659    76A      0.423876    77A      0.430982  
      78A      0.436761    79A      0.442855    80A      0.451895  
      81A      0.461107    82A      0.477086    83A      0.477663  
      84A      0.487138    85A      0.492401    86A      0.502070  
      87A      0.510995    88A      0.526406    89A      0.536278  
      90A      0.541641    91A      0.558675    92A      0.559674  
      93A      0.568401    94A      0.574328    95A      0.578930  
      96A      0.583261    97A      0.594420    98A      0.596115  
      99A      0.600128   100A      0.602971   101A      0.614107  
     102A      0.617785   103A      0.620503   104A      0.621805  
     105A      0.635032   106A      0.643638   107A      0.644181  
     108A      0.652374   109A      0.653186   110A      0.662963  
     111A      0.669884   112A      0.676013   113A      0.677805  
     114A      0.688161   115A      0.694819   116A      0.698379  
     117A      0.712701   118A      0.722461   119A      0.725768  
     120A      0.734639   121A      0.738693   122A      0.749521  
     123A      0.764311   124A      0.782923   125A      0.792950  
     126A      0.826017   127A      0.838642   128A      0.847694  
     129A      0.852967   130A      0.860926   131A      0.865318  
     132A      0.881635   133A      0.895831   134A      0.899112  
     135A      0.903863   136A      0.914236   137A      0.923024  
     138A      0.943094   139A      0.961584   140A      0.977013  
     141A      0.981767   142A      1.002098   143A      1.004373  
     144A      1.013355   145A      1.023173   146A      1.027034  
     147A      1.031332   148A      1.038157   149A      1.046187  
     150A      1.050572   151A      1.067347   152A      1.069117  
     153A      1.090530   154A      1.094134   155A      1.116658  
     156A      1.124237   157A      1.128594   158A      1.137198  
     159A      1.153218   160A      1.179556   161A      1.188986  
     162A      1.197596   163A      1.203513   164A      1.208552  
     165A      1.216760   166A      1.228875   167A      1.238665  
     168A      1.250376   169A      1.259435   170A      1.271420  
     171A      1.272208   172A      1.284217   173A      1.299241  
     174A      1.311043   175A      1.311965   176A      1.322837  
     177A      1.335690   178A      1.342223   179A      1.355605  
     180A      1.361549   181A      1.367260   182A      1.373753  
     183A      1.387987   184A      1.400043   185A      1.409925  
     186A      1.419260   187A      1.427557   188A      1.441868  
     189A      1.452042   190A      1.454790   191A      1.465270  
     192A      1.466206   193A      1.485584   194A      1.496862  
     195A      1.497786   196A      1.512998   197A      1.521249  
     198A      1.527270   199A      1.537112   200A      1.551977  
     201A      1.554461   202A      1.555414   203A      1.564851  
     204A      1.568843   205A      1.574011   206A      1.584302  
     207A      1.586283   208A      1.598412   209A      1.610718  
     210A      1.633856   211A      1.639236   212A      1.645809  
     213A      1.659547   214A      1.684632   215A      1.691418  
     216A      1.698897   217A      1.701508   218A      1.715154  
     219A      1.725712   220A      1.738496   221A      1.743761  
     222A      1.753250   223A      1.759454   224A      1.773994  
     225A      1.791068   226A      1.798280   227A      1.803298  
     228A      1.830853   229A      1.859494   230A      1.881804  
     231A      1.889174   232A      1.914723   233A      1.931945  
     234A      1.940493   235A      1.967834   236A      1.978977  
     237A      2.005059   238A      2.009425   239A      2.046006  
     240A      2.063909   241A      2.122794   242A      2.151160  
     243A      2.163221   244A      2.175372   245A      2.204158  
     246A      2.207332   247A      2.322074   248A      2.336469  
     249A      2.364388   250A      2.375926   251A      2.412350  
     252A      2.446357   253A      2.448735   254A      2.468591  
     255A      2.514265   256A      2.553062   257A      2.570657  
     258A      2.589248   259A      2.597918   260A      2.598745  
     261A      2.612569   262A      2.628084   263A      2.658488  
     264A      2.664057   265A      2.684576   266A      2.695956  
     267A      2.702788   268A      2.722285   269A      2.737787  
     270A      2.756060   271A      2.768260   272A      2.789766  
     273A      2.802917   274A      2.807269   275A      2.810618  
     276A      2.823345   277A      2.841978   278A      2.850189  
     279A      2.859357   280A      2.867337   281A      2.874412  
     282A      2.893585   283A      2.901530   284A      2.916665  
     285A      2.923188   286A      2.929879   287A      2.936076  
     288A      2.940779   289A      2.950569   290A      2.970379  
     291A      2.981952   292A      2.996782   293A      3.009763  
     294A      3.015067   295A      3.016854   296A      3.022510  
     297A      3.037684   298A      3.043981   299A      3.058301  
     300A      3.058911   301A      3.071924   302A      3.075577  
     303A      3.085938   304A      3.092449   305A      3.100901  
     306A      3.110103   307A      3.123781   308A      3.143232  
     309A      3.154626   310A      3.165485   311A      3.169155  
     312A      3.173964   313A      3.191694   314A      3.213719  
     315A      3.231204   316A      3.241121   317A      3.249548  
     318A      3.261244   319A      3.264531   320A      3.273500  
     321A      3.279342   322A      3.294014   323A      3.309577  
     324A      3.312651   325A      3.326868   326A      3.340606  
     327A      3.355759   328A      3.359063   329A      3.359553  
     330A      3.370078   331A      3.377536   332A      3.386832  
     333A      3.391913   334A      3.394225   335A      3.398061  
     336A      3.405878   337A      3.409852   338A      3.415725  
     339A      3.420195   340A      3.425658   341A      3.429104  
     342A      3.440587   343A      3.445886   344A      3.456669  
     345A      3.461347   346A      3.468703   347A      3.479391  
     348A      3.495098   349A      3.508422   350A      3.521009  
     351A      3.529376   352A      3.533259   353A      3.547102  
     354A      3.549086   355A      3.559651   356A      3.567952  
     357A      3.581711   358A      3.591091   359A      3.608243  
     360A      3.616575   361A      3.624813   362A      3.627854  
     363A      3.634347   364A      3.642639   365A      3.654172  
     366A      3.661632   367A      3.668850   368A      3.675736  
     369A      3.689507   370A      3.690357   371A      3.701566  
     372A      3.705939   373A      3.717827   374A      3.731987  
     375A      3.732327   376A      3.740061   377A      3.754063  
     378A      3.769749   379A      3.778302   380A      3.790850  
     381A      3.800834   382A      3.812700   383A      3.836174  
     384A      3.838541   385A      3.848383   386A      3.867580  
     387A      3.868258   388A      3.886012   389A      3.896055  
     390A      3.900971   391A      3.912635   392A      3.926123  
     393A      3.939437   394A      3.946665   395A      3.959004  
     396A      3.969133   397A      3.992089   398A      4.001150  
     399A      4.007653   400A      4.012619   401A      4.016647  
     402A      4.034186   403A      4.039858   404A      4.056162  
     405A      4.062822   406A      4.072007   407A      4.077901  
     408A      4.084433   409A      4.099710   410A      4.102812  
     411A      4.111259   412A      4.123192   413A      4.127424  
     414A      4.142129   415A      4.142817   416A      4.150674  
     417A      4.162374   418A      4.176334   419A      4.186200  
     420A      4.192670   421A      4.195438   422A      4.204915  
     423A      4.212038   424A      4.215729   425A      4.223038  
     426A      4.231133   427A      4.240164   428A      4.264671  
     429A      4.276327   430A      4.285892   431A      4.299013  
     432A      4.307744   433A      4.312840   434A      4.319718  
     435A      4.332796   436A      4.345375   437A      4.349409  
     438A      4.366808   439A      4.378176   440A      4.386058  
     441A      4.390652   442A      4.402776   443A      4.412207  
     444A      4.424770   445A      4.428400   446A      4.436495  
     447A      4.452273   448A      4.458771   449A      4.468471  
     450A      4.481001   451A      4.488830   452A      4.500619  
     453A      4.515819   454A      4.528079   455A      4.539016  
     456A      4.555014   457A      4.568288   458A      4.572942  
     459A      4.579793   460A      4.589973   461A      4.594401  
     462A      4.606542   463A      4.608050   464A      4.614877  
     465A      4.626824   466A      4.631113   467A      4.641751  
     468A      4.645597   469A      4.658090   470A      4.668851  
     471A      4.674707   472A      4.687112   473A      4.703217  
     474A      4.714427   475A      4.715802   476A      4.720771  
     477A      4.740588   478A      4.753124   479A      4.759586  
     480A      4.795169   481A      4.807112   482A      4.812788  
     483A      4.834140   484A      4.856041   485A      4.876160  
     486A      4.902433   487A      4.926681   488A      4.946939  
     489A      4.952821   490A      4.974173   491A      5.022310  
     492A      5.027494   493A      5.034964   494A      5.054410  
     495A      5.063948   496A      5.075364   497A      5.087152  
     498A      5.092562   499A      5.110932   500A      5.121769  
     501A      5.145231   502A      5.159368   503A      5.166890  
     504A      5.186594   505A      5.209769   506A      5.223888  
     507A      5.255975   508A      5.260009   509A      5.290887  
     510A      5.297782   511A      5.310041   512A      5.321487  
     513A      5.337224   514A      5.343729   515A      5.356785  
     516A      5.366326   517A      5.375780   518A      5.400934  
     519A      5.409182   520A      5.437082   521A      5.455091  
     522A      5.461119   523A      5.481949   524A      5.487443  
     525A      5.506103   526A      5.530051   527A      5.549040  
     528A      5.570431   529A      5.598429   530A      5.607565  
     531A      5.613544   532A      5.631356   533A      5.657264  
     534A      5.666178   535A      5.689055   536A      5.720193  
     537A      5.770584   538A      5.789500   539A      5.794784  
     540A      5.811836   541A      5.832954   542A      5.859358  
     543A      5.873778   544A      5.910588   545A      5.943647  
     546A      5.970698   547A      5.987187   548A      6.012657  
     549A      6.046859   550A      6.103668   551A      6.138553  
     552A      6.178124   553A      6.203718   554A      6.255457  
     555A      6.302042   556A      6.336843   557A      6.360465  
     558A      6.370309   559A      6.387260   560A      6.434657  
     561A      6.475904   562A      6.523505   563A      6.600153  
     564A      6.912942   565A      6.993582   566A      7.058074  
     567A      7.115139   568A      7.282201   569A      7.302643  
     570A      7.346753   571A      7.573596   572A      7.799691  
     573A      7.984800   574A      9.385641   575A     11.987464  
     576A     12.432545   577A     12.466287   578A     12.728588  
     579A     13.022629   580A     13.181480   581A     13.230884  
     582A     13.399701   583A     13.743969   584A     13.826181  
     585A     13.947224   586A     15.886882  

    Final Occupation by Irrep:
              A 
    DOCC [    47 ]

  @DF-RHF Final Energy:  -537.57115012218776

   => Energetics <=

    Nuclear Repulsion Energy =            759.8871521036485319
    One-Electron Energy =               -2237.4329207742375729
    Two-Electron Energy =                 939.9746185484012813
    Total Energy =                       -537.5711501221877597

Computation Completed


Properties will be evaluated at   0.000000,   0.000000,   0.000000 [a0]

Properties computed using the SCF density matrix

  Nuclear Dipole Moment: [e a0]
     X:    11.9809      Y:     2.9885      Z:    -2.2792

  Electronic Dipole Moment: [e a0]
     X:   -11.9592      Y:    -2.6595      Z:     1.9042

  Dipole Moment: [e a0]
     X:     0.0217      Y:     0.3290      Z:    -0.3751     Total:     0.4994

  Dipole Moment: [D]
     X:     0.0551      Y:     0.8363      Z:    -0.9533     Total:     1.2693


*** tstop() called on skystd02.palmetto.clemson.edu at Wed Dec  8 20:37:09 2021
Module time:
	user time   =     108.85 seconds =       1.81 minutes
	system time =      10.47 seconds =       0.17 minutes
	total time  =        119 seconds =       1.98 minutes
Total time:
	user time   =     108.85 seconds =       1.81 minutes
	system time =      10.47 seconds =       0.17 minutes
	total time  =        119 seconds =       1.98 minutes
 MINTS: Wrapper to libmints.
   by Justin Turney

   Calculation information:
      Number of threads:                 1
      Number of atoms:                  27
      Number of AO shells:             214
      Number of SO shells:             214
      Number of primitives:            450
      Number of atomic orbitals:       665
      Number of basis functions:       586

      Number of irreps:                  1
      Integral cutoff                 1.00e-12
      Number of functions per irrep: [ 586 ]

 OEINTS: Overlap, kinetic, potential, dipole, and quadrupole integrals
         stored in file 35.

      Computing two-electron integrals...