
    -----------------------------------------------------------------------
          Psi4: An Open-Source Ab Initio Electronic Structure Package
                               Psi4 1.4 release

                         Git: Rev {HEAD} 9485035 


    D. G. A. Smith, L. A. Burns, A. C. Simmonett, R. M. Parrish,
    M. C. Schieber, R. Galvelis, P. Kraus, H. Kruse, R. Di Remigio,
    A. Alenaizan, A. M. James, S. Lehtola, J. P. Misiewicz, M. Scheurer,
    R. A. Shaw, J. B. Schriber, Y. Xie, Z. L. Glick, D. A. Sirianni,
    J. S. O'Brien, J. M. Waldrop, A. Kumar, E. G. Hohenstein,
    B. P. Pritchard, B. R. Brooks, H. F. Schaefer III, A. Yu. Sokolov,
    K. Patkowski, A. E. DePrince III, U. Bozkaya, R. A. King,
    F. A. Evangelista, J. M. Turney, T. D. Crawford, C. D. Sherrill,
    J. Chem. Phys. 152(18) 184108 (2020). https://doi.org/10.1063/5.0006002

                            Additional Code Authors
    E. T. Seidl, C. L. Janssen, E. F. Valeev, M. L. Leininger,
    J. F. Gonthier, R. M. Richard, H. R. McAlexander, M. Saitow, X. Wang,
    P. Verma, and M. H. Lechner

             Previous Authors, Complete List of Code Contributors,
                       and Citations for Specific Modules
    https://github.com/psi4/psi4/blob/master/codemeta.json
    https://github.com/psi4/psi4/graphs/contributors
    http://psicode.org/psi4manual/master/introduction.html#citing-psifour

    -----------------------------------------------------------------------


    Psi4 started on: Wednesday, 08 December 2021 08:49PM

    Process ID: 1193426
    Host:       skystd01.palmetto.clemson.edu
    PSIDATADIR: /home/maxbuskirk/.conda/envs/psifour/share/psi4
    Memory:     500.0 MiB
    Threads:    1
    
  ==> Input File <==

--------------------------------------------------------------------------
memory 32 GB

molecule mol {
1 1
 C     1.263455    -0.830095     0.301389
 C     0.109287    -0.071802     0.026070
 C    -0.866981    -0.615472    -0.835100
 C    -0.695421    -1.885914    -1.404542
 C     0.458870    -2.635169    -1.118854
 C     1.437612    -2.104158    -0.263687
 C    -0.074111     1.299690     0.586965
 C     0.015315     2.507717    -0.364566
 C    -1.356829     3.200190    -0.246615
 C    -1.779295     2.983952     1.221143
 C    -1.190588     1.620997     1.584855
 C     0.256381     1.583570     2.036784
 O     0.627353    -3.887603    -1.673311
 H     2.030351    -0.413010     0.962045
 H     2.339320    -2.681782    -0.037785
 H    -1.464833    -2.295724    -2.066212
 H    -1.772726    -0.036766    -1.047330
 H     0.561801     0.737340     2.658683
 H     0.739137     2.537536     2.274436
 H    -2.074849     2.677217    -0.903124
 H    -1.339762     4.261400    -0.547689
 H    -2.873814     3.001236     1.344677
 H    -1.364046     3.776898     1.868778
 H    -1.846742     0.816672     1.930608
 H     0.234839     2.183127    -1.393952
 H     0.827707     3.188298    -0.051567
 H    -1.181731     2.110837     2.315008
 H     1.450626    -4.253727    -1.381794
}

set scf_type df
set opt_type ts
set basis cc-pVTZ
set reference rhf
set geom_maxiter 400


mol.update_geometry()
mol.symmetrize(1e-3)

e, wfn = optimize('mp2', return_wfn=True)
oeprop(wfn, "MULLIKEN_CHARGES")
mol.print_out()
print_variables()
--------------------------------------------------------------------------

  Memory set to  29.802 GiB by Python driver.

Scratch directory: /tmp/
gradient() will perform analytic gradient computation.

*** tstart() called on skystd01.palmetto.clemson.edu
*** at Wed Dec  8 20:49:56 2021

   => Loading Basis Set <=

    Name: CC-PVTZ
    Role: ORBITAL
    Keyword: BASIS
    atoms 1-12  entry C          line   186 file /home/maxbuskirk/.conda/envs/psifour/share/psi4/basis/cc-pvtz.gbs 
    atoms 13    entry O          line   262 file /home/maxbuskirk/.conda/envs/psifour/share/psi4/basis/cc-pvtz.gbs 
    atoms 14-28 entry H          line    23 file /home/maxbuskirk/.conda/envs/psifour/share/psi4/basis/cc-pvtz.gbs 


         ---------------------------------------------------------
                                   SCF
               by Justin Turney, Rob Parrish, Andy Simmonett
                          and Daniel G. A. Smith
                              RHF Reference
                        1 Threads,  30517 MiB Core
         ---------------------------------------------------------

  ==> Geometry <==

    Molecular point group: c1
    Full point group: C1

    Geometry (in Angstrom), charge = 1, multiplicity = 1:

       Center              X                  Y                   Z               Mass       
    ------------   -----------------  -----------------  -----------------  -----------------
         C            1.405151500563    -0.911139518231     0.315706778412    12.000000000000
         C            0.250983500563    -0.152846518231     0.040387778412    12.000000000000
         C           -0.725284499437    -0.696516518231    -0.820782221588    12.000000000000
         C           -0.553724499437    -1.966958518231    -1.390224221588    12.000000000000
         C            0.600566500563    -2.716213518231    -1.104536221588    12.000000000000
         C            1.579308500563    -2.185202518231    -0.249369221588    12.000000000000
         C            0.067585500563     1.218645481769     0.601282778412    12.000000000000
         C            0.157011500563     2.426672481769    -0.350248221588    12.000000000000
         C           -1.215132499437     3.119145481769    -0.232297221588    12.000000000000
         C           -1.637598499437     2.902907481769     1.235460778412    12.000000000000
         C           -1.048891499437     1.539952481769     1.599172778412    12.000000000000
         C            0.398077500563     1.502525481769     2.051101778412    12.000000000000
         O            0.769049500563    -3.968647518231    -1.658993221588    15.994914619570
         H            2.172047500563    -0.494054518231     0.976362778412     1.007825032230
         H            2.481016500563    -2.762826518231    -0.023467221588     1.007825032230
         H           -1.323136499437    -2.376768518231    -2.051894221588     1.007825032230
         H           -1.631029499437    -0.117810518231    -1.033012221588     1.007825032230
         H            0.703497500563     0.656295481769     2.673000778412     1.007825032230
         H            0.880833500563     2.456491481769     2.288753778412     1.007825032230
         H           -1.933152499437     2.596172481769    -0.888806221588     1.007825032230
         H           -1.198065499437     4.180355481769    -0.533371221588     1.007825032230
         H           -2.732117499437     2.920191481769     1.358994778412     1.007825032230
         H           -1.222349499437     3.695853481769     1.883095778412     1.007825032230
         H           -1.705045499437     0.735627481769     1.944925778412     1.007825032230
         H            0.376535500563     2.102082481769    -1.379634221588     1.007825032230
         H            0.969403500563     3.107253481769    -0.037249221588     1.007825032230
         H           -1.040034499437     2.029792481769     2.329325778412     1.007825032230
         H            1.592322500563    -4.334771518231    -1.367476221588     1.007825032230

  Running in c1 symmetry.

  Rotational constants: A =      0.07223  B =      0.01425  C =      0.01323 [cm^-1]
  Rotational constants: A =   2165.32157  B =    427.17066  C =    396.70186 [MHz]
  Nuclear repulsion =  778.431730275725840

  Charge       = 1
  Multiplicity = 1
  Electrons    = 94
  Nalpha       = 47
  Nbeta        = 47

  ==> Algorithm <==

  SCF Algorithm Type is DF.
  DIIS enabled.
  MOM disabled.
  Fractional occupation disabled.
  Guess Type is SAD.
  Energy threshold   = 1.00e-10
  Density threshold  = 1.00e-10
  Integral threshold = 1.00e-12

  ==> Primary Basis <==

  Basis Set: CC-PVTZ
    Blend: CC-PVTZ
    Number of shells: 220
    Number of basis functions: 600
    Number of Cartesian functions: 680
    Spherical Harmonics?: true
    Max angular momentum: 3

   => Loading Basis Set <=

    Name: (CC-PVTZ AUX)
    Role: JKFIT
    Keyword: DF_BASIS_SCF
    atoms 1-12  entry C          line   125 file /home/maxbuskirk/.conda/envs/psifour/share/psi4/basis/cc-pvtz-jkfit.gbs 
    atoms 13    entry O          line   229 file /home/maxbuskirk/.conda/envs/psifour/share/psi4/basis/cc-pvtz-jkfit.gbs 
    atoms 14-28 entry H          line    51 file /home/maxbuskirk/.conda/envs/psifour/share/psi4/basis/cc-pvtz-jkfit.gbs 

  ==> Integral Setup <==

  DFHelper Memory: AOs need 3.284 GiB; user supplied 22.352 GiB. Using in-core AOs.

  ==> MemDFJK: Density-Fitted J/K Matrices <==

    J tasked:                   Yes
    K tasked:                   Yes
    wK tasked:                   No
    OpenMP threads:               1
    Memory [MiB]:             22888
    Algorithm:                 Core
    Schwarz Cutoff:           1E-12
    Mask sparsity (%):      19.4000
    Fitting Condition:        1E-10

   => Auxiliary Basis Set <=

  Basis Set: (CC-PVTZ AUX)
    Blend: CC-PVTZ-JKFIT
    Number of shells: 475
    Number of basis functions: 1477
    Number of Cartesian functions: 1773
    Spherical Harmonics?: true
    Max angular momentum: 4

  Minimum eigenvalue in the overlap matrix is 3.5450187743E-05.
  Reciprocal condition number of the overlap matrix is 3.4068388384E-06.
    Using symmetric orthogonalization.

  ==> Pre-Iterations <==

  SCF Guess: Superposition of Atomic Densities via on-the-fly atomic UHF (no occupation information).

   -------------------------
    Irrep   Nso     Nmo    
   -------------------------
     A        600     600 
   -------------------------
    Total     600     600
   -------------------------

  ==> Iterations <==

                           Total Energy        Delta E     RMS |[F,P]|

   @DF-RHF iter SAD:  -538.71560720668299   -5.38716e+02   0.00000e+00 
   @DF-RHF iter   1:  -537.48167398859175    1.23393e+00   1.14701e-03 DIIS
   @DF-RHF iter   2:  -537.73612706347785   -2.54453e-01   4.87103e-04 DIIS
   @DF-RHF iter   3:  -537.77592750925214   -3.98004e-02   1.27352e-04 DIIS
   @DF-RHF iter   4:  -537.78016481717350   -4.23731e-03   4.02927e-05 DIIS
   @DF-RHF iter   5:  -537.78050953918853   -3.44722e-04   1.24398e-05 DIIS
   @DF-RHF iter   6:  -537.78055359672874   -4.40575e-05   3.55123e-06 DIIS
   @DF-RHF iter   7:  -537.78055866107820   -5.06435e-06   1.58804e-06 DIIS
   @DF-RHF iter   8:  -537.78055978622410   -1.12515e-06   6.07034e-07 DIIS
   @DF-RHF iter   9:  -537.78056006859185   -2.82368e-07   2.77268e-07 DIIS
   @DF-RHF iter  10:  -537.78056013466585   -6.60740e-08   1.44011e-07 DIIS
   @DF-RHF iter  11:  -537.78056015421726   -1.95514e-08   5.44884e-08 DIIS
   @DF-RHF iter  12:  -537.78056015708648   -2.86923e-09   1.70532e-08 DIIS
   @DF-RHF iter  13:  -537.78056015724906   -1.62572e-10   7.06361e-09 DIIS
   @DF-RHF iter  14:  -537.78056015727680   -2.77396e-11   1.90169e-09 DIIS
   @DF-RHF iter  15:  -537.78056015727191    4.88853e-12   7.15133e-10 DIIS
   @DF-RHF iter  16:  -537.78056015727589   -3.97904e-12   2.86159e-10 DIIS
   @DF-RHF iter  17:  -537.78056015727793   -2.04636e-12   1.31853e-10 DIIS
   @DF-RHF iter  18:  -537.78056015727702    9.09495e-13   6.09290e-11 DIIS
  Energy and wave function converged.


  ==> Post-Iterations <==

    Orbital Energies [Eh]
    ---------------------

    Doubly Occupied:                                                      

       1A    -20.693984     2A    -11.476854     3A    -11.464648  
       4A    -11.439119     5A    -11.435979     6A    -11.432038  
       7A    -11.391409     8A    -11.390161     9A    -11.382503  
      10A    -11.381055    11A    -11.378861    12A    -11.360146  
      13A    -11.358124    14A     -1.509442    15A     -1.441773  
      16A     -1.281476    17A     -1.226035    18A     -1.215027  
      19A     -1.143075    20A     -1.132101    21A     -1.039196  
      22A     -1.012011    23A     -0.977080    24A     -0.967000  
      25A     -0.943311    26A     -0.880689    27A     -0.850969  
      28A     -0.827254    29A     -0.821013    30A     -0.784008  
      31A     -0.773703    32A     -0.766034    33A     -0.741001  
      34A     -0.715762    35A     -0.713289    36A     -0.708793  
      37A     -0.695278    38A     -0.683532    39A     -0.666283  
      40A     -0.656344    41A     -0.644856    42A     -0.638345  
      43A     -0.620448    44A     -0.603030    45A     -0.593355  
      46A     -0.466745    47A     -0.441437  

    Virtual:                                                              

      48A     -0.040093    49A     -0.015307    50A     -0.009220  
      51A      0.003647    52A      0.011143    53A      0.015579  
      54A      0.024104    55A      0.045566    56A      0.051647  
      57A      0.057052    58A      0.062001    59A      0.071203  
      60A      0.076822    61A      0.093359    62A      0.097784  
      63A      0.108591    64A      0.118954    65A      0.132911  
      66A      0.147382    67A      0.164740    68A      0.177858  
      69A      0.180472    70A      0.192385    71A      0.209466  
      72A      0.222666    73A      0.230938    74A      0.240227  
      75A      0.249877    76A      0.255834    77A      0.260552  
      78A      0.264891    79A      0.275602    80A      0.286882  
      81A      0.299800    82A      0.321330    83A      0.334020  
      84A      0.340611    85A      0.342418    86A      0.342837  
      87A      0.357654    88A      0.363459    89A      0.371593  
      90A      0.387994    91A      0.398148    92A      0.405570  
      93A      0.410088    94A      0.412508    95A      0.426165  
      96A      0.429219    97A      0.435440    98A      0.436854  
      99A      0.442227   100A      0.455762   101A      0.458371  
     102A      0.460844   103A      0.464821   104A      0.471240  
     105A      0.476425   106A      0.480211   107A      0.488586  
     108A      0.491918   109A      0.493637   110A      0.499494  
     111A      0.508085   112A      0.511984   113A      0.526014  
     114A      0.529726   115A      0.539934   116A      0.544684  
     117A      0.546622   118A      0.549468   119A      0.563639  
     120A      0.572482   121A      0.586675   122A      0.595532  
     123A      0.620430   124A      0.626712   125A      0.634352  
     126A      0.642734   127A      0.647997   128A      0.680145  
     129A      0.704654   130A      0.708805   131A      0.726494  
     132A      0.729068   133A      0.737104   134A      0.739375  
     135A      0.747515   136A      0.759019   137A      0.772645  
     138A      0.784223   139A      0.791489   140A      0.808003  
     141A      0.818014   142A      0.821891   143A      0.826259  
     144A      0.835366   145A      0.856677   146A      0.867401  
     147A      0.872948   148A      0.880347   149A      0.890235  
     150A      0.892751   151A      0.895823   152A      0.903527  
     153A      0.915854   154A      0.923984   155A      0.938733  
     156A      0.944892   157A      0.960840   158A      0.971727  
     159A      0.981701   160A      0.992432   161A      1.005743  
     162A      1.014763   163A      1.020865   164A      1.023072  
     165A      1.034226   166A      1.048561   167A      1.069240  
     168A      1.073261   169A      1.084335   170A      1.093243  
     171A      1.104337   172A      1.112567   173A      1.119934  
     174A      1.134278   175A      1.135853   176A      1.144052  
     177A      1.152065   178A      1.161761   179A      1.164108  
     180A      1.184134   181A      1.194338   182A      1.198831  
     183A      1.206841   184A      1.214413   185A      1.232156  
     186A      1.239836   187A      1.248602   188A      1.251525  
     189A      1.269299   190A      1.271782   191A      1.279192  
     192A      1.286194   193A      1.300037   194A      1.315160  
     195A      1.319865   196A      1.334388   197A      1.342450  
     198A      1.347009   199A      1.357298   200A      1.366011  
     201A      1.368463   202A      1.381064   203A      1.394092  
     204A      1.399388   205A      1.399739   206A      1.409731  
     207A      1.420951   208A      1.439113   209A      1.442288  
     210A      1.444505   211A      1.453263   212A      1.464940  
     213A      1.468704   214A      1.487165   215A      1.495046  
     216A      1.513385   217A      1.518293   218A      1.536433  
     219A      1.540342   220A      1.545202   221A      1.554082  
     222A      1.563910   223A      1.582022   224A      1.589224  
     225A      1.595190   226A      1.609120   227A      1.612980  
     228A      1.638085   229A      1.643177   230A      1.659809  
     231A      1.667455   232A      1.698145   233A      1.705500  
     234A      1.721671   235A      1.735504   236A      1.743950  
     237A      1.770286   238A      1.785092   239A      1.806902  
     240A      1.841840   241A      1.848944   242A      1.858268  
     243A      1.882753   244A      1.908172   245A      1.938902  
     246A      1.971838   247A      2.011528   248A      2.046682  
     249A      2.057278   250A      2.086018   251A      2.092506  
     252A      2.186316   253A      2.196417   254A      2.233007  
     255A      2.258473   256A      2.296231   257A      2.325562  
     258A      2.336716   259A      2.340640   260A      2.366481  
     261A      2.383348   262A      2.412723   263A      2.439332  
     264A      2.449357   265A      2.460497   266A      2.474596  
     267A      2.480794   268A      2.490509   269A      2.507331  
     270A      2.510950   271A      2.528732   272A      2.546884  
     273A      2.562914   274A      2.584919   275A      2.600362  
     276A      2.604480   277A      2.615298   278A      2.626992  
     279A      2.655379   280A      2.660146   281A      2.668505  
     282A      2.674581   283A      2.686065   284A      2.700147  
     285A      2.704369   286A      2.714231   287A      2.725464  
     288A      2.740797   289A      2.749410   290A      2.756647  
     291A      2.769741   292A      2.782011   293A      2.793626  
     294A      2.799137   295A      2.808984   296A      2.815591  
     297A      2.828022   298A      2.835829   299A      2.839180  
     300A      2.851539   301A      2.858039   302A      2.874628  
     303A      2.887063   304A      2.901882   305A      2.903824  
     306A      2.914485   307A      2.917254   308A      2.929158  
     309A      2.932555   310A      2.942870   311A      2.960314  
     312A      2.971088   313A      2.977243   314A      2.987265  
     315A      2.990621   316A      3.007601   317A      3.028485  
     318A      3.048493   319A      3.056745   320A      3.064661  
     321A      3.072102   322A      3.086523   323A      3.095976  
     324A      3.105875   325A      3.109119   326A      3.117963  
     327A      3.126049   328A      3.148141   329A      3.163538  
     330A      3.169779   331A      3.177166   332A      3.180696  
     333A      3.192454   334A      3.204626   335A      3.210216  
     336A      3.216391   337A      3.217989   338A      3.223924  
     339A      3.234583   340A      3.239537   341A      3.246452  
     342A      3.249321   343A      3.255235   344A      3.262311  
     345A      3.266956   346A      3.277286   347A      3.286031  
     348A      3.288131   349A      3.298600   350A      3.303079  
     351A      3.310065   352A      3.326489   353A      3.332942  
     354A      3.344699   355A      3.356970   356A      3.363431  
     357A      3.367179   358A      3.379030   359A      3.386765  
     360A      3.394299   361A      3.406030   362A      3.412961  
     363A      3.425507   364A      3.428085   365A      3.432099  
     366A      3.454371   367A      3.469102   368A      3.475446  
     369A      3.482618   370A      3.491243   371A      3.493892  
     372A      3.499150   373A      3.512191   374A      3.521166  
     375A      3.526860   376A      3.534566   377A      3.545087  
     378A      3.546095   379A      3.556365   380A      3.571019  
     381A      3.590442   382A      3.601559   383A      3.607251  
     384A      3.615189   385A      3.633608   386A      3.637220  
     387A      3.643230   388A      3.650744   389A      3.663400  
     390A      3.674306   391A      3.687904   392A      3.696171  
     393A      3.698175   394A      3.720580   395A      3.724532  
     396A      3.747490   397A      3.763299   398A      3.768765  
     399A      3.772904   400A      3.801651   401A      3.816343  
     402A      3.825807   403A      3.829011   404A      3.837032  
     405A      3.853516   406A      3.863979   407A      3.873993  
     408A      3.883390   409A      3.890333   410A      3.892742  
     411A      3.900020   412A      3.907197   413A      3.924158  
     414A      3.930793   415A      3.939743   416A      3.949012  
     417A      3.954289   418A      3.964281   419A      3.975340  
     420A      3.980869   421A      3.987953   422A      3.995349  
     423A      4.000338   424A      4.004929   425A      4.018789  
     426A      4.031300   427A      4.041186   428A      4.058868  
     429A      4.062491   430A      4.067304   431A      4.074304  
     432A      4.080756   433A      4.089133   434A      4.094667  
     435A      4.110397   436A      4.122542   437A      4.127944  
     438A      4.148957   439A      4.150477   440A      4.156715  
     441A      4.177124   442A      4.183391   443A      4.195149  
     444A      4.200729   445A      4.211285   446A      4.224799  
     447A      4.228839   448A      4.245569   449A      4.250726  
     450A      4.262526   451A      4.269931   452A      4.282168  
     453A      4.295138   454A      4.298040   455A      4.304699  
     456A      4.311112   457A      4.332120   458A      4.338475  
     459A      4.348985   460A      4.364232   461A      4.382595  
     462A      4.394446   463A      4.404139   464A      4.416767  
     465A      4.423053   466A      4.436013   467A      4.442103  
     468A      4.454533   469A      4.455775   470A      4.461001  
     471A      4.466361   472A      4.476566   473A      4.480373  
     474A      4.502793   475A      4.505569   476A      4.512121  
     477A      4.530240   478A      4.537159   479A      4.553033  
     480A      4.565649   481A      4.569929   482A      4.578963  
     483A      4.587389   484A      4.600004   485A      4.609460  
     486A      4.611858   487A      4.635304   488A      4.645691  
     489A      4.665956   490A      4.681992   491A      4.698371  
     492A      4.703822   493A      4.719252   494A      4.736605  
     495A      4.764340   496A      4.775562   497A      4.798679  
     498A      4.826382   499A      4.854123   500A      4.878365  
     501A      4.887897   502A      4.912224   503A      4.923268  
     504A      4.929578   505A      4.939749   506A      4.945971  
     507A      4.974810   508A      4.981459   509A      4.993763  
     510A      5.011700   511A      5.024258   512A      5.046214  
     513A      5.055832   514A      5.069475   515A      5.089895  
     516A      5.102961   517A      5.129519   518A      5.132813  
     519A      5.139680   520A      5.156477   521A      5.175726  
     522A      5.182526   523A      5.198353   524A      5.201197  
     525A      5.210594   526A      5.225324   527A      5.247513  
     528A      5.259987   529A      5.279728   530A      5.289060  
     531A      5.304242   532A      5.307600   533A      5.320494  
     534A      5.343484   535A      5.362816   536A      5.377769  
     537A      5.393761   538A      5.407284   539A      5.426884  
     540A      5.449046   541A      5.466622   542A      5.482091  
     543A      5.507206   544A      5.540261   545A      5.560661  
     546A      5.573610   547A      5.610157   548A      5.653564  
     549A      5.664763   550A      5.670819   551A      5.694989  
     552A      5.730286   553A      5.742618   554A      5.776316  
     555A      5.796952   556A      5.823031   557A      5.850132  
     558A      5.860204   559A      5.879526   560A      5.929942  
     561A      5.957084   562A      6.014101   563A      6.022828  
     564A      6.050089   565A      6.105031   566A      6.161293  
     567A      6.168266   568A      6.196379   569A      6.223916  
     570A      6.227870   571A      6.240327   572A      6.266240  
     573A      6.347854   574A      6.354247   575A      6.471056  
     576A      6.472862   577A      6.704885   578A      6.792218  
     579A      6.885434   580A      6.936156   581A      7.007923  
     582A      7.173613   583A      7.191096   584A      7.237124  
     585A      7.464210   586A      7.690516   587A      7.876417  
     588A      9.297017   589A     12.070695   590A     12.349095  
     591A     12.428265   592A     12.912248   593A     13.039792  
     594A     13.122824   595A     13.216476   596A     13.623739  
     597A     13.682783   598A     13.844938   599A     15.753325  
     600A     16.433139  

    Final Occupation by Irrep:
              A 
    DOCC [    47 ]

  @DF-RHF Final Energy:  -537.78056015727702

   => Energetics <=

    Nuclear Repulsion Energy =            778.4317302757258403
    One-Electron Energy =               -2258.8954259968786573
    Two-Electron Energy =                 942.6831355638757941
    Total Energy =                       -537.7805601572770229

Computation Completed


Properties will be evaluated at   0.000000,   0.000000,   0.000000 [a0]

Properties computed using the SCF density matrix

  Nuclear Dipole Moment: [e a0]
     X:    -3.3799      Y:    13.4748      Z:     5.7477

  Electronic Dipole Moment: [e a0]
     X:     3.0386      Y:   -10.8659      Z:    -3.4471

  Dipole Moment: [e a0]
     X:    -0.3413      Y:     2.6089      Z:     2.3006     Total:     3.4951

  Dipole Moment: [D]
     X:    -0.8676      Y:     6.6311      Z:     5.8475     Total:     8.8836


*** tstop() called on skystd01.palmetto.clemson.edu at Wed Dec  8 20:51:21 2021
Module time:
	user time   =      81.94 seconds =       1.37 minutes
	system time =       3.01 seconds =       0.05 minutes
	total time  =         85 seconds =       1.42 minutes
Total time:
	user time   =      81.94 seconds =       1.37 minutes
	system time =       3.01 seconds =       0.05 minutes
	total time  =         85 seconds =       1.42 minutes

*** tstart() called on skystd01.palmetto.clemson.edu
*** at Wed Dec  8 20:51:21 2021


  //>>>>>>>>>>>>>>>>>>>>>>>>>>>>>>>>>>>//
  //               DFMP2               //
  //<<<<<<<<<<<<<<<<<<<<<<<<<<<<<<<<<<<//

   => Loading Basis Set <=

    Name: (CC-PVTZ AUX)
    Role: RIFIT
    Keyword: DF_BASIS_MP2
    atoms 1-12  entry C          line   209 file /home/maxbuskirk/.conda/envs/psifour/share/psi4/basis/cc-pvtz-ri.gbs 
    atoms 13    entry O          line   305 file /home/maxbuskirk/.conda/envs/psifour/share/psi4/basis/cc-pvtz-ri.gbs 
    atoms 14-28 entry H          line    19 file /home/maxbuskirk/.conda/envs/psifour/share/psi4/basis/cc-pvtz-ri.gbs 

	 --------------------------------------------------------
	                          DF-MP2                         
	      2nd-Order Density-Fitted Moller-Plesset Theory     
	              RMP2 Wavefunction,   1 Threads             
	                                                         
	        Rob Parrish, Justin Turney, Andy Simmonett,      
	           Ed Hohenstein, and C. David Sherrill          
	 --------------------------------------------------------

   => Auxiliary Basis Set <=

  Basis Set: (CC-PVTZ AUX)
    Blend: CC-PVTZ-RI
    Number of shells: 449
    Number of basis functions: 1503
    Number of Cartesian functions: 1838
    Spherical Harmonics?: true
    Max angular momentum: 4

	 --------------------------------------------------------
	                 NBF =   600, NAUX =  1503
	 --------------------------------------------------------
	   CLASS    FOCC     OCC    AOCC    AVIR     VIR    FVIR
	   PAIRS       0      47      47     553     553       0
	 --------------------------------------------------------

  DFHelper Memory: AOs need 3.284 GiB; user supplied 22.352 GiB. Using in-core AOs.


         ------------------------------------------------------------
                                     CPHF                           
                                  Rob Parrish                       
         ------------------------------------------------------------

  ==> Geometry <==

    Molecular point group: c1
    Full point group: C1

    Geometry (in Angstrom), charge = 1, multiplicity = 1:

       Center              X                  Y                   Z               Mass       
    ------------   -----------------  -----------------  -----------------  -----------------
         C            1.405151500563    -0.911139518231     0.315706778412    12.000000000000
         C            0.250983500563    -0.152846518231     0.040387778412    12.000000000000
         C           -0.725284499437    -0.696516518231    -0.820782221588    12.000000000000
         C           -0.553724499437    -1.966958518231    -1.390224221588    12.000000000000
         C            0.600566500563    -2.716213518231    -1.104536221588    12.000000000000
         C            1.579308500563    -2.185202518231    -0.249369221588    12.000000000000
         C            0.067585500563     1.218645481769     0.601282778412    12.000000000000
         C            0.157011500563     2.426672481769    -0.350248221588    12.000000000000
         C           -1.215132499437     3.119145481769    -0.232297221588    12.000000000000
         C           -1.637598499437     2.902907481769     1.235460778412    12.000000000000
         C           -1.048891499437     1.539952481769     1.599172778412    12.000000000000
         C            0.398077500563     1.502525481769     2.051101778412    12.000000000000
         O            0.769049500563    -3.968647518231    -1.658993221588    15.994914619570
         H            2.172047500563    -0.494054518231     0.976362778412     1.007825032230
         H            2.481016500563    -2.762826518231    -0.023467221588     1.007825032230
         H           -1.323136499437    -2.376768518231    -2.051894221588     1.007825032230
         H           -1.631029499437    -0.117810518231    -1.033012221588     1.007825032230
         H            0.703497500563     0.656295481769     2.673000778412     1.007825032230
         H            0.880833500563     2.456491481769     2.288753778412     1.007825032230
         H           -1.933152499437     2.596172481769    -0.888806221588     1.007825032230
         H           -1.198065499437     4.180355481769    -0.533371221588     1.007825032230
         H           -2.732117499437     2.920191481769     1.358994778412     1.007825032230
         H           -1.222349499437     3.695853481769     1.883095778412     1.007825032230
         H           -1.705045499437     0.735627481769     1.944925778412     1.007825032230
         H            0.376535500563     2.102082481769    -1.379634221588     1.007825032230
         H            0.969403500563     3.107253481769    -0.037249221588     1.007825032230
         H           -1.040034499437     2.029792481769     2.329325778412     1.007825032230
         H            1.592322500563    -4.334771518231    -1.367476221588     1.007825032230

  Nuclear repulsion =  778.431730275725840
  Reference energy  = -537.780560157277023

  ==> Basis Set <==

  Basis Set: CC-PVTZ
    Blend: CC-PVTZ
    Number of shells: 220
    Number of basis functions: 600
    Number of Cartesian functions: 680
    Spherical Harmonics?: true
    Max angular momentum: 3

  ==> CGRSolver (by Rob Parrish) <==

   Number of roots    =         1
   Preconditioning    =    JACOBI
   Convergence cutoff =     1E-06
   Maximum iterations =       100

  ==> CPHFRHamiltonian (by Rob Parrish) <== 

  ==> MemDFJK: Density-Fitted J/K Matrices <==

    J tasked:                   Yes
    K tasked:                   Yes
    wK tasked:                   No
    OpenMP threads:               1
    Memory [MiB]:             22888
    Algorithm:                 Core
    Schwarz Cutoff:           1E-12
    Mask sparsity (%):      19.4000
    Fitting Condition:        1E-10

   => Auxiliary Basis Set <=

  Basis Set: (CC-PVTZ AUX)
    Blend: CC-PVTZ-JKFIT
    Number of shells: 475
    Number of basis functions: 1477
    Number of Cartesian functions: 1773
    Spherical Harmonics?: true
    Max angular momentum: 4

  ==> CPHF Iterations <==

  => Iterations <=

             Iter  Converged  Remaining    Residual
  CGR           1          0          1   8.750E-02
  CGR           2          0          1   2.504E-02
  CGR           3          0          1   1.543E-02
  CGR           4          0          1   6.819E-03
  CGR           5          0          1   3.021E-03
  CGR           6          0          1   1.341E-03
  CGR           7          0          1   4.157E-04
  CGR           8          0          1   1.200E-04
  CGR           9          0          1   4.398E-05
  CGR          10          0          1   1.276E-05
  CGR          11          0          1   4.358E-06
  CGR          12          0          1   1.593E-06
  CGR          13          1          0   6.890E-07

    CGRSolver converged.

  ==> DFCorrGrad: Density-Fitted Correlated Gradients <==

    OpenMP threads:              1
    Integrals threads:           1
    Memory [GiB]:           22.352
    Schwarz Cutoff:          0E+00
    Fitting Condition:       1E-10

   => Auxiliary Basis Set <=

  Basis Set: (CC-PVTZ AUX)
    Blend: CC-PVTZ-JKFIT
    Number of shells: 475
    Number of basis functions: 1477
    Number of Cartesian functions: 1773
    Spherical Harmonics?: true
    Max angular momentum: 4

	-----------------------------------------------------------
	 ==================> DF-MP2 Energies <==================== 
	-----------------------------------------------------------
	 Reference Energy          =    -537.7805601572770229 [Eh]
	 Singles Energy            =      -0.0000000000000000 [Eh]
	 Same-Spin Energy          =      -0.5838018488766830 [Eh]
	 Opposite-Spin Energy      =      -1.8229884243487156 [Eh]
	 Correlation Energy        =      -2.4067902732253987 [Eh]
	 Total Energy              =    -540.1873504305024198 [Eh]
	-----------------------------------------------------------
	 ================> DF-SCS-MP2 Energies <================== 
	-----------------------------------------------------------
	 SCS Same-Spin Scale       =       0.3333333333333333 [-]
	 SCS Opposite-Spin Scale   =       1.2000000000000000 [-]
	 SCS Same-Spin Energy      =      -0.1946006162922276 [Eh]
	 SCS Opposite-Spin Energy  =      -2.1875861092184588 [Eh]
	 SCS Correlation Energy    =      -2.3821867255106866 [Eh]
	 SCS Total Energy          =    -540.1627468827877010 [Eh]
	-----------------------------------------------------------


  -Total Gradient:
     Atom            X                  Y                   Z
    ------   -----------------  -----------------  -----------------
       1        0.002645770387     0.000013144053    -0.000763234501
       2        0.008618379580     0.009647413722    -0.002625638554
       3       -0.005369422370     0.002816485093    -0.001168048117
       4        0.003006918132    -0.002300935929     0.000259940930
       5       -0.010739965637     0.010984611659    -0.000743897701
       6        0.002903636940    -0.011099090350    -0.003022242499
       7       -0.036010876740    -0.008981453111    -0.014640651094
       8        0.001055375758    -0.007832917007     0.001314634698
       9       -0.001399904332     0.000559254034     0.009817154264
      10        0.025835667070    -0.037980012851     0.035374127693
      11        0.068176720509     0.165946391232     0.197187590638
      12       -0.064930568640     0.021922727158     0.028722746379
      13        0.027463826939    -0.031170058045    -0.000167519832
      14        0.006462846584     0.005767057873     0.007291683558
      15        0.009471179883    -0.006581334863     0.002353219579
      16       -0.009852603360    -0.003251535383    -0.007431650727
      17       -0.008677308469     0.007871635710    -0.000388907892
      18        0.010019489509    -0.007530141778     0.003899709374
      19        0.012359077075     0.005946915076     0.001854068079
      20       -0.006326830924    -0.005040466449    -0.008100517122
      21        0.000578417103     0.011563067881    -0.005631011255
      22       -0.012118124951     0.003548632134    -0.000909501854
      23        0.002257046369     0.007908236890     0.005808000655
      24       -0.004133548336    -0.001116240923     0.014689368505
      25        0.003077751439    -0.001392957882    -0.012346289463
      26        0.008026512172     0.007794314772     0.002134062462
      27       -0.018035437178    -0.142547732795    -0.246832108442
      28       -0.014364024505     0.004534990080    -0.005935087761


*** tstop() called on skystd01.palmetto.clemson.edu at Wed Dec  8 21:00:22 2021
Module time:
	user time   =     506.12 seconds =       8.44 minutes
	system time =      21.76 seconds =       0.36 minutes
	total time  =        541 seconds =       9.02 minutes
Total time:
	user time   =     588.06 seconds =       9.80 minutes
	system time =      24.77 seconds =       0.41 minutes
	total time  =        626 seconds =      10.43 minutes

			-----------------------------------------
			 OPTKING 2.0: for geometry optimizations 
			  - R.A. King,  Bethel University        
			-----------------------------------------

	Internal coordinates to be generated automatically.
	Detected frag 1 with atoms:  1 2 3 4 5 6 7 8 9 10 11 12 13 14 15 16 17 18 19 20
	 21 22 23 24 25 26 27 28
	---Fragment 1 Bond Connectivity---
	 1 : 2 6 14
	 2 : 1 3 7
	 3 : 2 4 17
	 4 : 3 5 16
	 5 : 4 6 13
	 6 : 1 5 15
	 7 : 2 8 11 12
	 8 : 7 9 25 26
	 9 : 8 10 20 21
	 10 : 9 11 22 23
	 11 : 7 10 12 24 27
	 12 : 7 11 18 19
	 13 : 5 28
	 14 : 1
	 15 : 6
	 16 : 4
	 17 : 3
	 18 : 12
	 19 : 12
	 20 : 9
	 21 : 9
	 22 : 10
	 23 : 10
	 24 : 11
	 25 : 8
	 26 : 8
	 27 : 11
	 28 : 13

	---Fragment 1 Geometry and Gradient---
	 C           2.6553515008       -1.7218041515        0.5965993471
	 C           0.4742900781       -0.2888380587        0.0763218400
	 C          -1.3705890670       -1.3162254613       -1.5510536074
	 C          -1.0463876529       -3.7170128996       -2.6271430318
	 C           1.1349062062       -5.1328996477       -2.0872709544
	 C           2.9844605337       -4.1294342881       -0.4712395329
	 C           0.1277180861        2.3029062046        1.1362597752
	 C           0.2967087346        4.5857463867       -0.6618732147
	 C          -2.2962676301        5.8943307060       -0.4389781285
	 C          -3.0946126674        5.4857001081        2.3346825099
	 C          -1.9821176693        2.9100884368        3.0219985785
	 C           0.7522574528        2.8393616571        3.8760206166
	 O           1.4532929330       -7.4996568979       -3.1350428328
	 H           4.1045749075       -0.9336277305        1.8450582503
	 H           4.6884416988       -5.2209854516       -0.0443466217
	 H          -2.5003656105       -4.4914415631       -3.8775181172
	 H          -3.0821990565       -0.2226296142       -1.9521101831
	 H           1.3294176060        1.2402187179        5.0512394043
	 H           1.6645340782        4.6420961301        4.3251178098
	 H          -3.6531287827        4.9060549650       -1.6796003374
	 H          -2.2640156743        7.8997269676       -1.0079255320
	 H          -5.1629538165        5.5183621344        2.5681279371
	 H          -2.3099057835        6.9841508804        3.5585352892
	 H          -3.2220690254        1.3901344709        3.6753770555
	 H           0.7115489726        3.9723601837       -2.6071308321
	 H           1.8319071211        5.8718580829       -0.0703908272
	 H          -1.9653803650        3.8357518821        4.4017877782
	 H           3.0090534295       -8.1915309859       -2.5841555419
	             0.0026457704        0.0000131441       -0.0007632345
	             0.0086183796        0.0096474137       -0.0026256386
	            -0.0053694224        0.0028164851       -0.0011680481
	             0.0030069181       -0.0023009359        0.0002599409
	            -0.0107399656        0.0109846117       -0.0007438977
	             0.0029036369       -0.0110990903       -0.0030222425
	            -0.0360108767       -0.0089814531       -0.0146406511
	             0.0010553758       -0.0078329170        0.0013146347
	            -0.0013999043        0.0005592540        0.0098171543
	             0.0258356671       -0.0379800129        0.0353741277
	             0.0681767205        0.1659463912        0.1971875906
	            -0.0649305686        0.0219227272        0.0287227464
	             0.0274638269       -0.0311700580       -0.0001675198
	             0.0064628466        0.0057670579        0.0072916836
	             0.0094711799       -0.0065813349        0.0023532196
	            -0.0098526034       -0.0032515354       -0.0074316507
	            -0.0086773085        0.0078716357       -0.0003889079
	             0.0100194895       -0.0075301418        0.0038997094
	             0.0123590771        0.0059469151        0.0018540681
	            -0.0063268309       -0.0050404664       -0.0081005171
	             0.0005784171        0.0115630679       -0.0056310113
	            -0.0121181250        0.0035486321       -0.0009095019
	             0.0022570464        0.0079082369        0.0058080007
	            -0.0041335483       -0.0011162409        0.0146893685
	             0.0030777514       -0.0013929579       -0.0123462895
	             0.0080265122        0.0077943148        0.0021340625
	            -0.0180354372       -0.1425477328       -0.2468321084
	            -0.0143640245        0.0045349901       -0.0059350878

	Previous optimization step data not found.  Starting new optimization.

	---Fragment 1 Intrafragment Coordinates---
	 - Coordinate -           - BOHR/RAD -       - ANG/DEG -
	 R(1,2)           =         2.661035	       1.408159
	 R(1,6)           =         2.654294	       1.404592
	 R(1,14)          =         2.068845	       1.094786
	 R(2,3)           =         2.665981	       1.410776
	 R(2,7)           =         2.821475	       1.493060
	 R(3,4)           =         2.650822	       1.402754
	 R(3,17)          =         2.070364	       1.095589
	 R(4,5)           =         2.655982	       1.405485
	 R(4,16)          =         2.068146	       1.094416
	 R(5,6)           =         2.653178	       1.404001
	 R(5,13)          =         2.607822	       1.380000
	 R(6,15)          =         2.068157	       1.094422
	 R(7,8)           =         2.910876	       1.540369
	 R(7,11)          =         2.894147	       1.531517
	 R(7,12)          =         2.860791	       1.513865
	 R(8,9)           =         2.913006	       1.541496
	 R(8,25)          =         2.081433	       1.101447
	 R(8,26)          =         2.088245	       1.105052
	 R(9,10)          =         2.915052	       1.542579
	 R(9,20)          =         2.087320	       1.104562
	 R(9,21)          =         2.084791	       1.103224
	 R(10,11)         =         2.888568	       1.528564
	 R(10,22)         =         2.081730	       1.101604
	 R(10,23)         =         2.087806	       1.104820
	 R(11,12)         =         2.865513	       1.516364
	 R(11,24)         =         2.067521	       1.094085
	 R(11,27)         =         1.661611	       0.879287
	 R(12,18)         =         2.066763	       1.093684
	 R(12,19)         =         2.069732	       1.095255
	 R(13,28)         =         1.789569	       0.946999
	 B(1,2,3)         =         2.070330	     118.621169
	 B(1,2,7)         =         2.119852	     121.458592
	 B(1,6,5)         =         2.096327	     120.110665
	 B(1,6,15)        =         2.091924	     119.858443
	 B(2,1,6)         =         2.107639	     120.758844
	 B(2,1,14)        =         2.079426	     119.142324
	 B(2,3,4)         =         2.108523	     120.809443
	 B(2,3,17)        =         2.079202	     119.129510
	 B(2,7,8)         =         2.072817	     118.763673
	 B(2,7,11)        =         2.125903	     121.805293
	 B(2,7,12)        =         2.100423	     120.345347
	 B(3,2,7)         =         2.092441	     119.888010
	 B(3,4,5)         =         2.095249	     120.048912
	 B(3,4,16)        =         2.092759	     119.906261
	 B(4,3,17)        =         2.095393	     120.057181
	 B(4,5,6)         =         2.088291	     119.650255
	 B(4,5,13)        =         2.097186	     120.159916
	 B(5,4,16)        =         2.095155	     120.043523
	 B(5,6,15)        =         2.094932	     120.030755
	 B(5,13,28)       =         1.910634	     109.471239
	 B(6,1,14)        =         2.096115	     120.098558
	 B(6,5,13)        =         2.097704	     120.189605
	 B(7,8,9)         =         1.826944	     104.676183
	 B(7,8,25)        =         1.936678	     110.963500
	 B(7,8,26)        =         1.929130	     110.530985
	 B(7,11,10)       =         1.888931	     108.227760
	 B(7,11,12)       =         1.039529	      59.560608
	 B(7,11,24)       =         2.081600	     119.266881
	 B(7,11,27)       =         2.279158	     130.586143
	 B(7,12,11)       =         1.059719	      60.717455
	 B(7,12,18)       =         2.049291	     117.415738
	 B(7,12,19)       =         2.057096	     117.862930
	 B(8,7,11)        =         1.854886	     106.277142
	 B(8,7,12)        =         2.017350	     115.585635
	 B(8,9,10)        =         1.827213	     104.691603
	 B(8,9,20)        =         1.897015	     108.690958
	 B(8,9,21)        =         1.979545	     113.419566
	 B(9,8,25)        =         1.962002	     112.414426
	 B(9,8,26)        =         1.934839	     110.858130
	 B(9,10,11)       =         1.819262	     104.236028
	 B(9,10,22)       =         1.956930	     112.123858
	 B(9,10,23)       =         1.932870	     110.745317
	 B(10,9,20)       =         1.897722	     108.731471
	 B(10,9,21)       =         1.980944	     113.499729
	 B(10,11,12)      =         2.049282	     117.415189
	 B(10,11,24)      =         2.094078	     119.981854
	 B(10,11,27)      =         1.271063	      72.826549
	 B(11,7,12)       =         1.042344	      59.721937
	 B(11,10,22)      =         1.949770	     111.713593
	 B(11,10,23)      =         1.934482	     110.837635
	 B(11,12,18)      =         2.043220	     117.067911
	 B(11,12,19)      =         2.053042	     117.630617
	 B(12,11,24)      =         2.048738	     117.384031
	 B(12,11,27)      =         1.324981	      75.915798
	 B(18,12,19)      =         2.012475	     115.306334
	 B(20,9,21)       =         1.878938	     107.655208
	 B(22,10,23)      =         1.871758	     107.243828
	 B(24,11,27)      =         1.724569	      98.810544
	 B(25,8,26)       =         1.875162	     107.438867
	 D(1,2,3,4)       =         0.002225	       0.127510
	 D(1,2,3,17)      =         3.131340	     179.412579
	 D(1,2,7,8)       =         1.903726	     109.075488
	 D(1,2,7,11)      =        -2.009677	    -115.146008
	 D(1,2,7,12)      =        -0.769279	     -44.076454
	 D(1,6,5,4)       =        -0.001268	      -0.072649
	 D(1,6,5,13)      =        -3.139863	    -179.900897
	 D(2,1,6,5)       =         0.004887	       0.280032
	 D(2,1,6,15)      =        -3.139052	    -179.854413
	 D(2,3,4,5)       =         0.001304	       0.074696
	 D(2,3,4,16)      =         3.135652	     179.659639
	 D(2,7,8,9)       =         2.100956	     120.375900
	 D(2,7,8,25)      =        -0.019558	      -1.120569
	 D(2,7,8,26)      =        -2.098069	    -120.210517
	 D(2,7,11,10)     =        -2.431542	    -139.317105
	 D(2,7,11,12)     =         1.903190	     109.044767
	 D(2,7,11,24)     =         0.046269	       2.651024
	 D(2,7,11,27)     =         2.408409	     137.991658
	 D(2,7,12,11)     =        -1.944838	    -111.431010
	 D(2,7,12,18)     =        -0.072654	      -4.162745
	 D(2,7,12,19)     =         2.457624	     140.811505
	 D(3,2,1,6)       =        -0.005316	      -0.304566
	 D(3,2,1,14)      =         3.132955	     179.505079
	 D(3,2,7,8)       =        -1.201325	     -68.830861
	 D(3,2,7,11)      =         1.168457	      66.947643
	 D(3,2,7,12)      =         2.408855	     138.017197
	 D(3,4,5,6)       =        -0.001796	      -0.102897
	 D(3,4,5,13)      =         3.136800	     179.725402
	 D(4,3,2,7)       =         3.108309	     178.093007
	 D(4,5,6,15)      =        -3.140510	    -179.937972
	 D(4,5,13,28)     =         3.141593	     180.000000
	 D(5,4,3,17)      =        -3.127696	    -179.203768
	 D(5,6,1,14)      =        -3.133351	    -179.527798
	 D(6,1,2,7)       =        -3.110817	    -178.236697
	 D(6,5,4,16)      =        -3.136134	    -179.687266
	 D(6,5,13,28)     =        -0.003014	      -0.172687
	 D(7,2,1,14)      =         0.027453	       1.572947
	 D(7,2,3,17)      =        -0.045761	      -2.621924
	 D(7,8,9,10)      =         0.589408	      33.770574
	 D(7,8,9,20)      =        -1.436064	     -82.280420
	 D(7,8,9,21)      =         2.757968	     158.019943
	 D(7,11,10,9)     =         0.342659	      19.632915
	 D(7,11,10,22)    =         2.459427	     140.914795
	 D(7,11,10,23)    =        -1.737450	     -99.548565
	 D(7,11,12,18)    =        -1.882066	    -107.834461
	 D(7,11,12,19)    =         1.887308	     108.134810
	 D(7,12,11,10)    =        -1.674894	     -95.964379
	 D(7,12,11,24)    =         1.911561	     109.524366
	 D(7,12,11,27)    =        -2.752927	    -157.731083
	 D(8,7,11,10)     =         0.019570	       1.121250
	 D(8,7,11,12)     =        -1.928883	    -110.516878
	 D(8,7,11,24)     =         2.497381	     143.089378
	 D(8,7,11,27)     =        -1.423665	     -81.569987
	 D(8,7,12,11)     =         1.651177	      94.605462
	 D(8,7,12,18)     =        -2.759824	    -158.126272
	 D(8,7,12,19)     =        -0.229546	     -13.152022
	 D(8,9,10,11)     =        -0.573603	     -32.865016
	 D(8,9,10,22)     =        -2.685603	    -153.873725
	 D(8,9,10,23)     =         1.507601	      86.379149
	 D(9,8,7,11)      =        -0.375128	     -21.493240
	 D(9,8,7,12)      =        -1.487485	     -85.226614
	 D(9,10,11,12)    =         1.468896	      84.161553
	 D(9,10,11,24)    =        -2.129570	    -122.015371
	 D(9,10,11,27)    =         2.576033	     147.595807
	 D(10,9,8,25)     =         2.693169	     154.307237
	 D(10,9,8,26)     =        -1.490909	     -85.422819
	 D(10,11,7,12)    =         1.948453	     111.638128
	 D(10,11,12,18)   =         2.726225	     156.201160
	 D(10,11,12,19)   =         0.212414	      12.170431
	 D(11,7,8,25)     =        -2.495641	    -142.989709
	 D(11,7,8,26)     =         1.709032	      97.920343
	 D(11,7,12,18)    =         1.872184	     107.268266
	 D(11,7,12,19)    =        -1.880723	    -107.757485
	 D(11,10,9,20)    =         1.451379	      83.157889
	 D(11,10,9,21)    =        -2.741271	    -157.063241
	 D(12,7,8,25)     =         2.675187	     153.276917
	 D(12,7,8,26)     =         0.596675	      34.186969
	 D(12,7,11,24)    =        -1.856921	    -106.393744
	 D(12,7,11,27)    =         0.505219	      28.946891
	 D(12,11,10,22)   =        -2.697521	    -154.556567
	 D(12,11,10,23)   =        -0.611213	     -35.019926
	 D(13,5,4,16)     =         0.002461	       0.141033
	 D(13,5,6,15)     =         0.004080	       0.233781
	 D(14,1,6,15)     =         0.005895	       0.337758
	 D(16,4,3,17)     =         0.006653	       0.381175
	 D(18,12,11,24)   =         0.029494	       1.689905
	 D(18,12,11,27)   =         1.648192	      94.434456
	 D(19,12,11,24)   =        -2.484316	    -142.340824
	 D(19,12,11,27)   =        -0.865618	     -49.596273
	 D(20,9,8,25)     =         0.667697	      38.256244
	 D(20,9,8,26)     =         2.766804	     158.526188
	 D(20,9,10,22)    =        -0.660621	     -37.850820
	 D(20,9,10,23)    =        -2.750603	    -157.597945
	 D(21,9,8,25)     =        -1.421455	     -81.443393
	 D(21,9,8,26)     =         0.677651	      38.826551
	 D(21,9,10,22)    =         1.429914	      81.928049
	 D(21,9,10,23)    =        -0.660067	     -37.819076
	 D(22,10,11,24)   =        -0.012802	      -0.733490
	 D(22,10,11,27)   =        -1.590384	     -91.122313
	 D(23,10,11,24)   =         2.073506	     118.803150
	 D(23,10,11,27)   =         0.495924	      28.414328

	Current energy   :      -540.1873504305

	Generating empirical Hessian (Schlegel '84) for each fragment.
	Taking PRFO optimization step.
	Maximizing along 1 lowest eigenvalue of Hessian.

 RFO min eigenvalues
 -0.118000 -0.000000 -0.000000 -0.000000 -0.000000 -0.000000 -0.000000 -0.000000
 -0.000000 -0.000000 -0.000000 -0.000000 -0.000000 -0.000000 -0.000000 -0.000000
 -0.000000 -0.000000 -0.000000 -0.000000 -0.000000 -0.000000 -0.000000 -0.000000
 -0.000000 -0.000000 -0.000000 -0.000000 -0.000000 -0.000000 -0.000000 -0.000000
 -0.000000 -0.000000 -0.000000 -0.000000 -0.000000 -0.000000 -0.000000 -0.000000
 -0.000000 -0.000000 -0.000000 -0.000000 -0.000000 -0.000000 -0.000000 -0.000000
 -0.000000 -0.000000 -0.000000 -0.000000 -0.000000 -0.000000  0.000000  0.000000
  0.000000  0.000000  0.000000  0.000000  0.000000  0.000000  0.000000  0.000000
  0.000000  0.000000  0.000000  0.000000  0.000000  0.000000  0.000000  0.000000
  0.000000  0.000000  0.000000  0.000000  0.000000  0.000000  0.000000  0.000000
  0.000000  0.000000  0.000000  0.000000  0.000000  0.000000  0.000000  0.000000
  0.000000  0.000000  0.000000  0.000000  0.000000  0.000000  0.000000  0.000000
  0.000000  0.000000  0.000000  0.000000  0.000000  0.000000  0.000000  0.000000
  0.000000  0.000000  0.000000  0.000000  0.000000  0.000000  0.000000  0.000000
  0.003293  0.005867  0.006306  0.007591  0.012456  0.014108  0.015743  0.016242
  0.017011  0.017273  0.017347  0.017506  0.017564  0.017607  0.017656  0.018498
  0.020779  0.023956  0.029177  0.031208  0.040631  0.045115  0.049873  0.052581
  0.057727  0.058538  0.065251  0.069854  0.070029  0.072691  0.080764  0.082052
  0.082920  0.088478  0.102749  0.107668  0.112793  0.159992  0.159997  0.159999
  0.160000  0.160117  0.169967  0.202678  0.203873  0.220020  0.229695  0.240081
  0.249829  0.250738  0.264429  0.269132  0.276831  0.291814  0.301965  0.331246
  0.331442  0.331684  0.332273  0.333613  0.335128  0.335883  0.341845  0.342254
  0.342755  0.343069  0.343363  0.343699  0.345044  0.407325  0.409209  0.442437
  0.446105  0.448783  0.452044  0.492138  0.583930  0.867367

 RFO max eigenvalues
 -0.000000  0.000000
	|RFO target step|  :        0.4419614761
	RFO gradient       :       -0.2669917137
	RFO hessian        :        0.4863221488
	Projected Delta(E) :       -0.0589823860

	Back-transformation to cartesian coordinates...
	Could not converge backtransformation.
	Using first guess instead.

	--- Internal Coordinate Step in ANG or DEG, aJ/ANG or AJ/DEG ---
	 ---------------------------------------------------------------------------
	   Coordinate                Previous        Force       Change         New 
	   ----------                --------       ------       ------       ------
	    1 R(1,2)          =      1.408159    -0.141444    -0.016185     1.391974
	    2 R(1,6)          =      1.404592    -0.171725    -0.019391     1.385201
	    3 R(1,14)         =      1.094786    -0.091652    -0.012742     1.082044
	    4 R(2,3)          =      1.410776    -0.126138    -0.014589     1.396187
	    5 R(2,7)          =      1.493060    -0.146529    -0.020898     1.472162
	    6 R(3,4)          =      1.402754    -0.175526    -0.019834     1.382921
	    7 R(3,17)         =      1.095589    -0.093979    -0.013117     1.082472
	    8 R(4,5)          =      1.405485    -0.139719    -0.015861     1.389624
	    9 R(4,16)         =      1.094416    -0.104116    -0.014486     1.079930
	   10 R(5,6)          =      1.404001    -0.091454    -0.010253     1.393748
	   11 R(5,13)         =      1.380000    -0.232531    -0.023621     1.356379
	   12 R(6,15)         =      1.094422    -0.096910    -0.013492     1.080930
	   13 R(7,8)          =      1.540369    -0.028349    -0.005840     1.534529
	   14 R(7,11)         =      1.531517     0.061492     0.014937     1.546453
	   15 R(7,12)         =      1.513865    -0.120007    -0.029592     1.484273
	   16 R(8,9)          =      1.541496    -0.019332    -0.007569     1.533927
	   17 R(8,25)         =      1.101447    -0.103499    -0.014633     1.086814
	   18 R(8,26)         =      1.105052    -0.093144    -0.013291     1.091761
	   19 R(9,10)         =      1.542579    -0.076193    -0.012237     1.530342
	   20 R(9,20)         =      1.104562    -0.093212    -0.013087     1.091475
	   21 R(9,21)         =      1.103224    -0.104371    -0.014822     1.088402
	   22 R(10,11)        =      1.528564     0.255301     0.043412     1.571977
	   23 R(10,22)        =      1.101604    -0.098814    -0.013852     1.087752
	   24 R(10,23)        =      1.104820    -0.081800    -0.011527     1.093292
	   25 R(11,12)        =      1.516364     0.198234     0.041305     1.557669
	   26 R(11,24)        =      1.094085    -0.065430    -0.008751     1.085334
	   27 R(11,27)        =      0.879287     2.344417     0.169777     1.049064
	   28 R(12,18)        =      1.093684    -0.089323    -0.012163     1.081522
	   29 R(12,19)        =      1.095255    -0.090870    -0.012597     1.082658
	   30 R(13,28)        =      0.946999     0.132377     0.012370     0.959369
	   31 B(1,2,3)        =    118.621169     0.000345     0.713990   119.335158
	   32 B(1,2,7)        =    121.458592    -0.000350    -0.726647   120.731945
	   33 B(1,6,5)        =    120.110665    -0.000039    -0.045117   120.065548
	   34 B(1,6,15)       =    119.858443    -0.000011    -0.061865   119.796578
	   35 B(2,1,6)        =    120.758844    -0.000265    -0.571391   120.187454
	   36 B(2,1,14)       =    119.142324     0.000295     0.729387   119.871710
	   37 B(2,3,4)        =    120.809443    -0.000059    -0.140570   120.668873
	   38 B(2,3,17)       =    119.129510     0.000241     0.649022   119.778532
	   39 B(2,7,8)        =    118.763673     0.000455     0.670422   119.434096
	   40 B(2,7,11)       =    121.805293    -0.000557    -1.618560   120.186733
	   41 B(2,7,12)       =    120.345347    -0.000615    -1.503253   118.842094
	   42 B(3,2,7)        =    119.888010     0.000003     0.006830   119.894840
	   43 B(3,4,5)        =    120.048912    -0.000162    -0.358657   119.690255
	   44 B(3,4,16)       =    119.906261     0.000221     0.564492   120.470754
	   45 B(4,3,17)       =    120.057181    -0.000181    -0.507538   119.549643
	   46 B(4,5,6)        =    119.650255     0.000180     0.402272   120.052527
	   47 B(4,5,13)       =    120.159916    -0.001049    -2.199613   117.960303
	   48 B(5,4,16)       =    120.043523    -0.000059    -0.205234   119.838290
	   49 B(5,6,15)       =    120.030755     0.000051     0.106996   120.137751
	   50 B(5,13,28)      =    109.471239    -0.000270    -0.785280   108.685959
	   51 B(6,1,14)       =    120.098558    -0.000030    -0.159454   119.939104
	   52 B(6,5,13)       =    120.189605     0.000869     1.797471   121.987076
	   53 B(7,8,9)        =    104.676183     0.000591     1.146061   105.822244
	   54 B(7,8,25)       =    110.963500    -0.000340    -0.906622   110.056878
	   55 B(7,8,26)       =    110.530985    -0.000156    -0.295872   110.235114
	   56 B(7,11,10)      =    108.227760    -0.000282    -1.152741   107.075019
	   57 B(7,11,12)      =     59.560608    -0.000916    -2.431137    57.129471
	   58 B(7,11,24)      =    119.266881     0.000172    -0.067233   119.199648
	   59 B(7,11,27)      =    130.586143    -0.000645    -1.749153   128.836990
	   60 B(7,12,11)      =     60.717455     0.000081     0.337548    61.055002
	   61 B(7,12,18)      =    117.415738     0.000095     0.318038   117.733776
	   62 B(7,12,19)      =    117.862930    -0.000162    -0.263810   117.599120
	   63 B(8,7,11)       =    106.277142    -0.000244    -0.240473   106.036668
	   64 B(8,7,12)       =    115.585635     0.000159     0.927024   116.512659
	   65 B(8,9,10)       =    104.691603     0.000248     0.386756   105.078358
	   66 B(8,9,20)       =    108.690958    -0.000023     0.153798   108.844756
	   67 B(8,9,21)       =    113.419566    -0.000007     0.091270   113.510836
	   68 B(9,8,25)       =    112.414426    -0.000349    -0.952918   111.461508
	   69 B(9,8,26)       =    110.858130     0.000094     0.695716   111.553846
	   70 B(9,10,11)      =    104.236028    -0.000324    -0.256589   103.979439
	   71 B(9,10,22)      =    112.123858     0.000461     1.094368   113.218226
	   72 B(9,10,23)      =    110.745317    -0.000121    -0.409809   110.335508
	   73 B(10,9,20)      =    108.731471    -0.000065    -0.283130   108.448341
	   74 B(10,9,21)      =    113.499729    -0.000239    -0.563874   112.935855
	   75 B(10,11,12)     =    117.415189     0.000163     0.959752   118.374941
	   76 B(10,11,24)     =    119.981854     0.000067     0.200001   120.181855
	   77 B(10,11,27)     =     72.826549     0.000695     3.046596    75.873145
	   78 B(11,7,12)      =     59.721937     0.000836     2.093590    61.815527
	   79 B(11,10,22)     =    111.713593    -0.000092    -0.612243   111.101350
	   80 B(11,10,23)     =    110.837635     0.000073    -0.092414   110.745220
	   81 B(11,12,18)     =    117.067911    -0.000190    -0.938243   116.129668
	   82 B(11,12,19)     =    117.630617    -0.000250    -0.975917   116.654700
	   83 B(12,11,24)     =    117.384031     0.000227     0.529497   117.913529
	   84 B(12,11,27)     =     75.915798     0.000157     0.289917    76.205715
	   85 B(18,12,19)     =    115.306334     0.000276     0.966057   116.272391
	   86 B(20,9,21)      =    107.655208     0.000085     0.213907   107.869116
	   87 B(22,10,23)     =    107.243828     0.000001     0.248117   107.491945
	   88 B(24,11,27)     =     98.810544     0.000122     0.712475    99.523020
	   89 B(25,8,26)      =    107.438867     0.000151     0.289923   107.728790
	   90 D(1,2,3,4)      =      0.127510     0.000000    -0.002991     0.124519
	   91 D(1,2,3,17)     =    179.412579     0.000004     0.084148   179.496727
	   92 D(1,2,7,8)      =    109.075488     0.000051     0.825499   109.900987
	   93 D(1,2,7,11)     =   -115.146008    -0.000082    -0.910810  -116.056818
	   94 D(1,2,7,12)     =    -44.076454     0.000040     0.355410   -43.721044
	   95 D(1,6,5,4)      =     -0.072649     0.000003     0.080515     0.007866
	   96 D(1,6,5,13)     =   -179.900897     0.000001     0.022306  -179.878591
	   97 D(2,1,6,5)      =      0.280032    -0.000007    -0.180056     0.099975
	   98 D(2,1,6,15)     =   -179.854413    -0.000007    -0.172925  -180.027338
	   99 D(2,3,4,5)      =      0.074696    -0.000004    -0.092669    -0.017973
	  100 D(2,3,4,16)     =    179.659639     0.000001     0.017168   179.676807
	  101 D(2,7,8,9)      =    120.375900    -0.000124    -2.357603   118.018297
	  102 D(2,7,8,25)     =     -1.120569    -0.000068    -1.411862    -2.532431
	  103 D(2,7,8,26)     =   -120.210517    -0.000038    -1.012428  -121.222945
	  104 D(2,7,11,10)    =   -139.317105     0.000014     1.235649  -138.081455
	  105 D(2,7,11,12)    =    109.044767    -0.000037    -0.294426   108.750342
	  106 D(2,7,11,24)    =      2.651024     0.000003    -0.003993     2.647031
	  107 D(2,7,11,27)    =    137.991658    -0.000113    -1.456114   136.535544
	  108 D(2,7,12,11)    =   -111.431010     0.000024     0.567293  -110.863718
	  109 D(2,7,12,18)    =     -4.162745    -0.000031    -0.571196    -4.733940
	  110 D(2,7,12,19)    =    140.811505     0.000070     1.505409   142.316914
	  111 D(3,2,1,6)      =     -0.304566     0.000005     0.139492    -0.165073
	  112 D(3,2,1,14)     =    179.505079    -0.000006    -0.149170   179.355908
	  113 D(3,2,7,8)      =    -68.830861     0.000057     0.990489   -67.840373
	  114 D(3,2,7,11)     =     66.947643    -0.000077    -0.745821    66.201822
	  115 D(3,2,7,12)     =    138.017197     0.000046     0.520399   138.537596
	  116 D(3,4,5,6)      =     -0.102897     0.000002     0.054181    -0.048716
	  117 D(3,4,5,13)     =    179.725402     0.000005     0.116851   179.842253
	  118 D(4,3,2,7)      =    178.093007    -0.000009    -0.195500   177.897507
	  119 D(4,5,6,15)     =   -179.937972     0.000003     0.073589  -179.864383
	  120 D(4,5,13,28)    =    180.000000    -0.000003    -0.063218   179.936782
	  121 D(5,4,3,17)     =   -179.203768    -0.000008    -0.187839  -179.391607
	  122 D(5,6,1,14)     =   -179.527798     0.000004     0.107116  -179.420682
	  123 D(6,1,2,7)      =   -178.236697     0.000013     0.317751  -177.918946
	  124 D(6,5,4,16)     =   -179.687266    -0.000003    -0.058181  -179.745447
	  125 D(6,5,13,28)    =     -0.172687    -0.000000    -0.001798    -0.174485
	  126 D(7,2,1,14)     =      1.572947     0.000001     0.029088     1.602035
	  127 D(7,2,3,17)     =     -2.621924    -0.000005    -0.108361    -2.730285
	  128 D(7,8,9,10)     =     33.770574     0.000056     0.691111    34.461684
	  129 D(7,8,9,20)     =    -82.280420     0.000047     0.750027   -81.530393
	  130 D(7,8,9,21)     =    158.019943     0.000027     0.313739   158.333682
	  131 D(7,11,10,9)    =     19.632915     0.000022    -0.139708    19.493207
	  132 D(7,11,10,22)   =    140.914795     0.000091     0.687602   141.602397
	  133 D(7,11,10,23)   =    -99.548565     0.000089     0.536074   -99.012491
	  134 D(7,11,12,18)   =   -107.834461    -0.000051    -0.891086  -108.725547
	  135 D(7,11,12,19)   =    108.134810    -0.000014     0.211364   108.346174
	  136 D(7,12,11,10)   =    -95.964379     0.000198     3.196096   -92.768283
	  137 D(7,12,11,24)   =    109.524366    -0.000047    -1.164481   108.359884
	  138 D(7,12,11,27)   =   -157.731083    -0.000008    -0.313204  -158.044287
	  139 D(8,7,11,10)    =      1.121250    -0.000038     0.150686     1.271936
	  140 D(8,7,11,12)    =   -110.516878    -0.000089    -1.379389  -111.896268
	  141 D(8,7,11,24)    =    143.089378    -0.000049    -1.088956   142.000422
	  142 D(8,7,11,27)    =    -81.569987    -0.000165    -2.541078   -84.111065
	  143 D(8,7,12,11)    =     94.605462    -0.000006     0.151879    94.757342
	  144 D(8,7,12,18)    =   -158.126272    -0.000061    -0.986609  -159.112881
	  145 D(8,7,12,19)    =    -13.152022     0.000041     1.089996   -12.062027
	  146 D(8,9,10,11)    =    -32.865016     0.000007    -0.004833   -32.869850
	  147 D(8,9,10,22)    =   -153.873725     0.000021     0.307033  -153.566692
	  148 D(8,9,10,23)    =     86.379149    -0.000031    -0.462275    85.916874
	  149 D(9,8,7,11)     =    -21.493240     0.000033    -0.209671   -21.702910
	  150 D(9,8,7,12)     =    -85.226614    -0.000162    -2.534981   -87.761595
	  151 D(9,10,11,12)   =     84.161553    -0.000239    -3.313824    80.847729
	  152 D(9,10,11,24)   =   -122.015371     0.000022     1.241793  -120.773578
	  153 D(9,10,11,27)   =    147.595807    -0.000099    -1.291775   146.304032
	  154 D(10,9,8,25)    =    154.307237     0.000004    -0.213653   154.093584
	  155 D(10,9,8,26)    =    -85.422819     0.000009    -0.013699   -85.436518
	  156 D(10,11,7,12)   =    111.638128     0.000050     1.530075   113.168203
	  157 D(10,11,12,18)  =    156.201160     0.000146     2.305010   158.506171
	  158 D(10,11,12,19)  =     12.170431     0.000184     3.407461    15.577892
	  159 D(11,7,8,25)    =   -142.989709     0.000089     0.736071  -142.253638
	  160 D(11,7,8,26)    =     97.920343     0.000118     1.135504    99.055847
	  161 D(11,7,12,18)   =    107.268266    -0.000055    -1.138489   106.129777
	  162 D(11,7,12,19)   =   -107.757485     0.000047     0.938117  -106.819368
	  163 D(11,10,9,20)   =     83.157889     0.000023     0.237048    83.394937
	  164 D(11,10,9,21)   =   -157.063241     0.000002    -0.043628  -157.106869
	  165 D(12,7,8,25)    =    153.276917    -0.000106    -1.589239   151.687678
	  166 D(12,7,8,26)    =     34.186969    -0.000076    -1.189806    32.997163
	  167 D(12,7,11,24)   =   -106.393744     0.000040     0.290433  -106.103311
	  168 D(12,7,11,27)   =     28.946891    -0.000076    -1.161688    27.785202
	  169 D(12,11,10,22)  =   -154.556567    -0.000169    -2.486514  -157.043080
	  170 D(12,11,10,23)  =    -35.019926    -0.000172    -2.638042   -37.657968
	  171 D(13,5,4,16)    =      0.141033     0.000000     0.004489     0.145522
	  172 D(13,5,6,15)    =      0.233781     0.000001     0.015379     0.249160
	  173 D(14,1,6,15)    =      0.337758     0.000005     0.114247     0.452005
	  174 D(16,4,3,17)    =      0.381175    -0.000003    -0.078002     0.303173
	  175 D(18,12,11,24)  =      1.689905    -0.000098    -2.055567    -0.365662
	  176 D(18,12,11,27)  =     94.434456    -0.000059    -1.204290    93.230166
	  177 D(19,12,11,24)  =   -142.340824    -0.000061    -0.953117  -143.293941
	  178 D(19,12,11,27)  =    -49.596273    -0.000022    -0.101840   -49.698113
	  179 D(20,9,8,25)    =     38.256244    -0.000006    -0.154737    38.101507
	  180 D(20,9,8,26)    =    158.526188    -0.000001     0.045217   158.571405
	  181 D(20,9,10,22)   =    -37.850820     0.000037     0.548915   -37.301905
	  182 D(20,9,10,23)   =   -157.597945    -0.000015    -0.220393  -157.818339
	  183 D(21,9,8,25)    =    -81.443393    -0.000026    -0.591025   -82.034418
	  184 D(21,9,8,26)    =     38.826551    -0.000021    -0.391071    38.435480
	  185 D(21,9,10,22)   =     81.928049     0.000017     0.268239    82.196288
	  186 D(21,9,10,23)   =    -37.819076    -0.000035    -0.501070   -38.320146
	  187 D(22,10,11,24)  =     -0.733490     0.000092     2.069103     1.335613
	  188 D(22,10,11,27)  =    -91.122313    -0.000029    -0.464464   -91.586777
	  189 D(23,10,11,24)  =    118.803150     0.000089     1.917574   120.720725
	  190 D(23,10,11,27)  =     28.414328    -0.000031    -0.615993    27.798335
	 ---------------------------------------------------------------------------
	Successfully symmetrized geometry.

  ==> Convergence Check <==

  Measures of convergence in internal coordinates in au.
  Criteria marked as inactive (o), active & met (*), and active & unmet ( ).
  --------------------------------------------------------------------------------------------- ~
   Step     Total Energy     Delta E     MAX Force     RMS Force      MAX Disp      RMS Disp    ~
  --------------------------------------------------------------------------------------------- ~
    Convergence Criteria    1.00e-06 *    3.00e-04 *             o    1.20e-03 *             o  ~
  --------------------------------------------------------------------------------------------- ~
      1    -540.18735043   -5.40e+02      2.85e-01      2.18e-02 o    3.21e-01      3.18e-02 o  ~
  ---------------------------------------------------------------------------------------------

	Writing optimization data to binary file.
	Structure for next step:
	Cartesian Geometry (in Angstrom)
	    C     1.4032739633  -0.8907918383   0.3246465965
	    C     0.2599182604  -0.1467918958   0.0475302407
	    C    -0.7128595069  -0.6781748815  -0.8013948571
	    C    -0.5505215895  -1.9314220703  -1.3630780071
	    C     0.5923569417  -2.6696187739  -1.0803263904
	    C     1.5695609514  -2.1468899994  -0.2351272776
	    C     0.0916792893   1.2076741710   0.5992363896
	    C     0.1623051922   2.4188149981  -0.3404070585
	    C    -1.2126664281   3.0936613999  -0.2569311273
	    C    -1.6658339934   2.8960917004   1.1913618949
	    C    -1.0541263068   1.5052013254   1.5942865520
	    C     0.4430359321   1.4505370388   2.0207261224
	    O     0.7139633526  -3.8957268878  -1.6474559360
	    H     2.1675511827  -0.4830476816   0.9730626810
	    H     2.4601114301  -2.7189981747  -0.0159901250
	    H    -1.3074055628  -2.3415093262  -2.0151543628
	    H    -1.6085681500  -0.1092365721  -1.0153131960
	    H     0.7370701223   0.5989432363   2.6190744033
	    H     0.9126413671   2.3944170025   2.2671182329
	    H    -1.9063012452   2.5627109567  -0.9113619747
	    H    -1.2022490016   4.1391890542  -0.5592249067
	    H    -2.7475241750   2.8961866270   1.3060398139
	    H    -1.2680330174   3.6925512613   1.8259442179
	    H    -1.7028941758   0.6953092872   1.9122869235
	    H     0.3842746711   2.0924918535  -1.3530305947
	    H     0.9603917332   3.0943664479  -0.0263532946
	    H    -1.0262591390   2.0639244402   2.4817475865
	    H     1.5449359316  -4.2836542661  -1.3657017752
			--------------------------
			 OPTKING Finished Execution 
			--------------------------

    Structure for next step:
    Molecular point group: c1
    Full point group: C1

    Geometry (in Angstrom), charge = 1, multiplicity = 1:

    C            1.404971111170    -0.898747694150     0.323353614120
    C            0.261615403747    -0.154747748655     0.046237257263
    C           -0.711162367402    -0.686130736458    -0.802687843847
    C           -0.548824449311    -1.939377930170    -1.364370996075
    C            0.594054086379    -2.677574636665    -1.081619378248
    C            1.571258099940    -2.154845860192    -0.236420262194
    C            0.093376431974     1.199718323411     0.597943408295
    C            0.164002335130     2.410859155276    -0.341700043504
    C           -1.210969290547     3.085705559744    -0.258224111991
    C           -1.664136857581     2.888135859439     1.190068915926
    C           -1.052429168625     1.497245478971     1.592993574597
    C            0.444733076172     1.442581192173     2.019433146699
    O            0.715660497706    -3.903682755416    -1.648748926155
    H            2.169248333589    -0.491003535814     0.971769701191
    H            2.461808582120    -2.726954037663    -0.017283108754
    H           -1.305708425569    -2.349465187762    -2.016447354320
    H           -1.606871013978    -0.117192424852    -1.016606183599
    H            0.738767267554     0.590987386315     2.617781429911
    H            0.914338513045     2.386461159624     2.265825258158
    H           -1.904604110310     2.554755114412    -0.912654961902
    H           -1.200551863943     4.131233218125    -0.560517892564
    H           -2.745827043444     2.888230786051     1.304746835340
    H           -1.266335880041     3.684595423454     1.824651241446
    H           -1.701197040171     0.687353437588     1.910993947410
    H            0.385971814989     2.084536009433    -1.354323583685
    H            0.962088879333     3.086410607771    -0.027646278394
    H           -1.024562000730     2.055968596031     2.480454612620
    H            1.546633079983    -4.291610135219    -1.366994764245


Scratch directory: /tmp/
gradient() will perform analytic gradient computation.

*** tstart() called on skystd01.palmetto.clemson.edu
*** at Wed Dec  8 21:00:22 2021

   => Loading Basis Set <=

    Name: CC-PVTZ
    Role: ORBITAL
    Keyword: BASIS
    atoms 1-12  entry C          line   186 file /home/maxbuskirk/.conda/envs/psifour/share/psi4/basis/cc-pvtz.gbs 
    atoms 13    entry O          line   262 file /home/maxbuskirk/.conda/envs/psifour/share/psi4/basis/cc-pvtz.gbs 
    atoms 14-28 entry H          line    23 file /home/maxbuskirk/.conda/envs/psifour/share/psi4/basis/cc-pvtz.gbs 


         ---------------------------------------------------------
                                   SCF
               by Justin Turney, Rob Parrish, Andy Simmonett
                          and Daniel G. A. Smith
                              RHF Reference
                        1 Threads,  30517 MiB Core
         ---------------------------------------------------------

  ==> Geometry <==

    Molecular point group: c1
    Full point group: C1

    Geometry (in Angstrom), charge = 1, multiplicity = 1:

       Center              X                  Y                   Z               Mass       
    ------------   -----------------  -----------------  -----------------  -----------------
         C            1.404971111170    -0.898747694150     0.323353614120    12.000000000000
         C            0.261615403747    -0.154747748655     0.046237257263    12.000000000000
         C           -0.711162367402    -0.686130736458    -0.802687843847    12.000000000000
         C           -0.548824449311    -1.939377930170    -1.364370996075    12.000000000000
         C            0.594054086379    -2.677574636665    -1.081619378248    12.000000000000
         C            1.571258099940    -2.154845860192    -0.236420262194    12.000000000000
         C            0.093376431974     1.199718323411     0.597943408295    12.000000000000
         C            0.164002335130     2.410859155276    -0.341700043504    12.000000000000
         C           -1.210969290547     3.085705559744    -0.258224111991    12.000000000000
         C           -1.664136857581     2.888135859439     1.190068915926    12.000000000000
         C           -1.052429168625     1.497245478971     1.592993574597    12.000000000000
         C            0.444733076172     1.442581192173     2.019433146699    12.000000000000
         O            0.715660497706    -3.903682755416    -1.648748926155    15.994914619570
         H            2.169248333589    -0.491003535814     0.971769701191     1.007825032230
         H            2.461808582120    -2.726954037663    -0.017283108754     1.007825032230
         H           -1.305708425569    -2.349465187762    -2.016447354320     1.007825032230
         H           -1.606871013978    -0.117192424852    -1.016606183599     1.007825032230
         H            0.738767267554     0.590987386315     2.617781429911     1.007825032230
         H            0.914338513045     2.386461159624     2.265825258158     1.007825032230
         H           -1.904604110310     2.554755114412    -0.912654961902     1.007825032230
         H           -1.200551863943     4.131233218125    -0.560517892564     1.007825032230
         H           -2.745827043444     2.888230786051     1.304746835340     1.007825032230
         H           -1.266335880041     3.684595423454     1.824651241446     1.007825032230
         H           -1.701197040171     0.687353437588     1.910993947410     1.007825032230
         H            0.385971814989     2.084536009433    -1.354323583685     1.007825032230
         H            0.962088879333     3.086410607771    -0.027646278394     1.007825032230
         H           -1.024562000730     2.055968596031     2.480454612620     1.007825032230
         H            1.546633079983    -4.291610135219    -1.366994764245     1.007825032230

  Running in c1 symmetry.

  Rotational constants: A =      0.07193  B =      0.01465  C =      0.01357 [cm^-1]
  Rotational constants: A =   2156.28665  B =    439.09562  C =    406.68139 [MHz]
  Nuclear repulsion =  783.595931286091400

  Charge       = 1
  Multiplicity = 1
  Electrons    = 94
  Nalpha       = 47
  Nbeta        = 47

  ==> Algorithm <==

  SCF Algorithm Type is DF.
  DIIS enabled.
  MOM disabled.
  Fractional occupation disabled.
  Guess Type is READ.
  Energy threshold   = 1.00e-10
  Density threshold  = 1.00e-10
  Integral threshold = 1.00e-12

  ==> Primary Basis <==

  Basis Set: CC-PVTZ
    Blend: CC-PVTZ
    Number of shells: 220
    Number of basis functions: 600
    Number of Cartesian functions: 680
    Spherical Harmonics?: true
    Max angular momentum: 3

   => Loading Basis Set <=

    Name: (CC-PVTZ AUX)
    Role: JKFIT
    Keyword: DF_BASIS_SCF
    atoms 1-12  entry C          line   125 file /home/maxbuskirk/.conda/envs/psifour/share/psi4/basis/cc-pvtz-jkfit.gbs 
[...]
	  159 D(11,7,8,25)    =   -147.764873    -0.000000     0.001342  -147.763530
	  160 D(11,7,8,26)    =     79.700612    -0.000000     0.018529    79.719141
	  161 D(11,7,12,18)   =    114.902542     0.000000     0.006392   114.908935
	  162 D(11,7,12,19)   =   -112.716620     0.000000     0.002899  -112.713721
	  163 D(11,10,9,20)   =     63.615975     0.000000     0.009251    63.625226
	  164 D(11,10,9,21)   =   -174.030826     0.000000     0.009612  -174.021214
	  165 D(12,7,8,25)    =    169.613690    -0.000000     0.004631   169.618321
	  166 D(12,7,8,26)    =     37.079174     0.000000     0.021818    37.100992
	  167 D(12,7,11,24)   =   -121.494050     0.000000    -0.007844  -121.501894
	  168 D(12,7,11,27)   =     -0.419108     0.000000    -0.018455    -0.437564
	  169 D(12,11,10,22)  =    178.212621    -0.000000    -0.000037   178.212584
	  170 D(12,11,10,23)  =    -64.287050    -0.000000    -0.007972   -64.295022
	  171 D(13,5,4,16)    =      0.002087    -0.000000    -0.007454    -0.005367
	  172 D(13,5,6,15)    =      0.000000     0.000000     0.006796     0.006796
	  173 D(14,1,6,15)    =      0.004091    -0.000000     0.004410     0.008501
	  174 D(16,4,3,17)    =      0.005487    -0.000000     0.000627     0.006113
	  175 D(18,12,11,24)  =    -54.523235     0.000000    -0.015600   -54.538835
	  176 D(18,12,11,27)  =     60.679275    -0.000000    -0.016886    60.662390
	  177 D(19,12,11,24)  =   -176.918540    -0.000000    -0.029411  -176.947951
	  178 D(19,12,11,27)  =    -61.716029    -0.000000    -0.030697   -61.746726
	  179 D(20,9,8,25)    =     54.543721    -0.000000    -0.020814    54.522907
	  180 D(20,9,8,26)    =    176.973018    -0.000000    -0.029856   176.943163
	  181 D(20,9,10,22)   =    -56.875888     0.000000     0.010547   -56.865341
	  182 D(20,9,10,23)   =   -174.355934     0.000000     0.007359  -174.348575
	  183 D(21,9,8,25)    =    -60.610518    -0.000000    -0.019198   -60.629716
	  184 D(21,9,8,26)    =     61.818779    -0.000000    -0.028239    61.790540
	  185 D(21,9,10,22)   =     65.477312     0.000000     0.010907    65.488219
	  186 D(21,9,10,23)   =    -52.002735     0.000000     0.007720   -51.995015
	  187 D(22,10,11,24)  =     56.838916    -0.000000     0.005210    56.844126
	  188 D(22,10,11,27)  =    -65.490680    -0.000000    -0.006200   -65.496880
	  189 D(23,10,11,24)  =    174.339245    -0.000000    -0.002725   174.336520
	  190 D(23,10,11,27)  =     52.009649    -0.000000    -0.014135    51.995514
	 ---------------------------------------------------------------------------
	Successfully symmetrized geometry.

  ==> Convergence Check <==

  Measures of convergence in internal coordinates in au.
  Criteria marked as inactive (o), active & met (*), and active & unmet ( ).
  ---------------------------------------------------------------------------------------------
   Step     Total Energy     Delta E     MAX Force     RMS Force      MAX Disp      RMS Disp   
  ---------------------------------------------------------------------------------------------
    Convergence Criteria    1.00e-06 *    3.00e-04 *             o    1.20e-03 *             o
  ---------------------------------------------------------------------------------------------
     43    -540.30817797   -5.33e-06      5.84e-05 *    1.34e-05 o    5.72e-04 *    2.04e-04 o  ~
  ---------------------------------------------------------------------------------------------


  **** Optimization is complete! (in 43 steps) ****

  ==> Optimization Summary <==

  Measures of convergence in internal coordinates in au.
  --------------------------------------------------------------------------------------------------------------- ~
   Step         Total Energy             Delta E       MAX Force       RMS Force        MAX Disp        RMS Disp  ~
  --------------------------------------------------------------------------------------------------------------- ~
      1    -540.187350430502   -540.187350430502      0.28456080      0.02184041      0.32083255      0.03182218  ~
      2    -540.255424391384     -0.068073960882      0.05381106      0.00503672      0.13738149      0.03627827  ~
      3    -540.273168000389     -0.017743609005      0.02154905      0.00256319      0.15560755      0.03632810  ~
      4    -540.283679390258     -0.010511389870      0.00910912      0.00146263      0.14443764      0.03599232  ~
      5    -540.289436552300     -0.005757162042      0.00914632      0.00120214      0.13855474      0.03620235  ~
      6    -540.293119621379     -0.003683069079      0.01469551      0.00139877      0.14862446      0.03624414  ~
      7    -540.296888821766     -0.003769200386      0.01673655      0.00158057      0.14219606      0.03550365  ~
      8    -540.300880828606     -0.003992006840      0.01578227      0.00159246      0.12270028      0.03335643  ~
      9    -540.304780673718     -0.003899845112      0.01170082      0.00150008      0.09943276      0.02966284  ~
     10    -540.308544496809     -0.003763823090      0.00945327      0.00146775      0.17379637      0.03629509  ~
     11    -540.305211552905      0.003332943904      0.00875215      0.00132462      0.19814900      0.03634631  ~
     12    -540.303939315205      0.001272237700      0.00693068      0.00127970      0.17869173      0.03627191  ~
     13    -540.301716733175      0.002222582030      0.00556961      0.00112639      0.16017909      0.03625959  ~
     14    -540.299819176369      0.001897556805      0.00450560      0.00103218      0.13317770      0.03624556  ~
     15    -540.297936938269      0.001882238100      0.00376491      0.00090741      0.14181624      0.03624388  ~
     16    -540.296239829786      0.001697108483      0.00350896      0.00081448      0.15672397      0.03623418  ~
     17    -540.294630113484      0.001609716302      0.00332188      0.00076108      0.20556425      0.03624249  ~
     18    -540.293922331685      0.000707781799      0.00421404      0.00088808      0.15766100      0.03625148  ~
     19    -540.296525320701     -0.002602989016      0.00607092      0.00097993      0.16632936      0.03627948  ~
     20    -540.297338214350     -0.000812893650      0.00597833      0.00104088      0.12164227      0.03634993  ~
     21    -540.299274040120     -0.001935825770      0.00432248      0.00086470      0.11446475      0.03626706  ~
     22    -540.301338694030     -0.002064653910      0.00273698      0.00063344      0.10710254      0.03627063  ~
     23    -540.303334587362     -0.001995893332      0.00295387      0.00059912      0.11629378      0.03627852  ~
     24    -540.304843646029     -0.001509058668      0.00296567      0.00059089      0.11814585      0.03628501  ~
     25    -540.305903767795     -0.001060121766      0.00248413      0.00046937      0.07325565      0.02010722  ~
     26    -540.306264424605     -0.000360656810      0.00158113      0.00038369      0.02717841      0.00560524  ~
     27    -540.306447028945     -0.000182604340      0.00164266      0.00032341      0.07212529      0.01261644  ~
     28    -540.306742219554     -0.000295190609      0.00116844      0.00036025      0.07316124      0.01782355  ~
     29    -540.306876418874     -0.000134199320      0.00190039      0.00041225      0.04426818      0.01377300  ~
     30    -540.307195282871     -0.000318863997      0.00216744      0.00036942      0.12358363      0.03627737  ~
     31    -540.307393913876     -0.000198631005      0.00240882      0.00050291      0.06052491      0.01867513  ~
     32    -540.307530290122     -0.000136376246      0.00233387      0.00051408      0.03141737      0.00851176  ~
     33    -540.307857497798     -0.000327207677      0.00225902      0.00030394      0.09306496      0.02092206  ~
     34    -540.308059202961     -0.000201705162      0.00197609      0.00028704      0.02271125      0.00590595  ~
     35    -540.308103538400     -0.000044335439      0.00187025      0.00021412      0.02052312      0.00739470  ~
     36    -540.308112448978     -0.000008910579      0.00179954      0.00023548      0.15004022      0.03626339  ~
     37    -540.307541594883      0.000570854095      0.00935726      0.00098266      0.07431812      0.01980078  ~
     38    -540.308082474387     -0.000540879504      0.00188552      0.00027842      0.04077819      0.01157483  ~
     39    -540.308161235735     -0.000078761348      0.00103049      0.00012585      0.01145672      0.00272710  ~
     40    -540.308171088953     -0.000009853218      0.00043597      0.00005512      0.00324348      0.00103084  ~
     41    -540.308174322162     -0.000003233209      0.00029025      0.00004396      0.01661104      0.00516599  ~
     42    -540.308172637873      0.000001684289      0.00013366      0.00003996      0.01115985      0.00305277  ~
     43    -540.308177968961     -0.000005331088      0.00005843      0.00001340      0.00057181      0.00020408  ~
  --------------------------------------------------------------------------------------------------------------- ~

	Writing optimization data to binary file.
	Final energy is   -540.3081779689609
	Final (previous) structure:
	Cartesian Geometry (in Angstrom)
	    C     1.5750714658  -0.7210472095  -0.4105978483
	    C     0.3685762049  -0.1045783786  -0.0724416535
	    C    -0.8303934328  -0.7982992096  -0.2266169217
	    C    -0.8206322867  -2.0915756226  -0.7134346140
	    C     0.3780835328  -2.7090718944  -1.0516111079
	    C     1.5742959954  -2.0160112026  -0.8970909303
	    C     0.4773151770   1.2542763915   0.4283147151
	    C     0.3315365814   2.3696824525  -0.4595297794
	    C    -1.2228857487   2.6752706622  -0.2157598153
	    C    -1.4653452703   2.9637588844   1.2446139749
	    C    -1.0166674272   1.8051172765   2.0999244159
	    C     0.5349666537   1.5063905955   1.8382380676
	    O     0.3041473937  -3.9674225837  -1.5181740536
	    H     2.5119888619  -0.2002118514  -0.2981550940
	    H     2.5096468047  -2.4838779888  -1.1559261162
	    H    -1.7390174044  -2.6378200918  -0.8375457531
	    H    -1.7728166872  -0.3459778918   0.0267087208
	    H     0.8229526057   0.6458778594   2.4266937270
	    H     1.0726088827   2.4087078469   2.1049921258
	    H    -1.8108002009   1.8320165656  -0.5634641423
	    H    -1.4343827817   3.5195659297  -0.8630727190
	    H    -2.5265308258   3.1393955069   1.4047428546
	    H    -0.9418030633   3.8702576084   1.5385296482
	    H    -1.5918929705   0.9075129613   1.8973400685
	    H     0.4730592628   2.1230934781  -1.5029602017
	    H     0.8722989567   3.2560636592  -0.1493654296
	    H    -1.0760976006   2.0069953171   3.1640779868
	    H     1.1858737729  -4.2975142694  -1.7204530393
	Saving final (previous) structure.
	Cleaning optimization helper files.
			--------------------------
			 OPTKING Finished Execution 
			--------------------------

    Final optimized geometry and variables:
    Molecular point group: c1
    Full point group: C1

    Geometry (in Angstrom), charge = 1, multiplicity = 1:

    C            1.575071472011    -0.721047212344    -0.410597849925
    C            0.368576206390    -0.104578379031    -0.072441653814
    C           -0.830393436094    -0.798299212756    -0.226616922624
    C           -0.820632289948    -2.091575630827    -0.713434616821
    C            0.378083534256    -2.709071905081    -1.051611112018
    C            1.574296001591    -2.016011210555    -0.897090933803
    C            0.477315178861     1.254276396405     0.428314716744
    C            0.331536582658     2.369682461851    -0.459529781223
    C           -1.222885753503     2.675270672708    -0.215759816162
    C           -1.465345276064     2.963758896092     1.244613979765
    C           -1.016667431153     1.805117283580     2.099924424191
    C            0.534966655853     1.506390601381     1.838238074834
    O            0.304147394891    -3.967422599329    -1.518174059567
    H            2.511988871762    -0.200211852140    -0.298155095215
    H            2.509646814532    -2.483877998610    -1.155926120773
    H           -1.739017411249    -2.637820102192    -0.837545756356
    H           -1.772816694125    -0.345977893209     0.026708720882
    H            0.822952608900     0.645877861908     2.426693736543
    H            1.072608886885     2.408707856336     2.104992134078
    H           -1.810800208056     1.832016572818    -0.563464144517
    H           -1.434382787334     3.519565943559    -0.863072722350
    H           -2.526530835733     3.139395519227     1.404742860099
    H           -0.941803067034     3.870257623599     1.538529654235
    H           -1.591892976761     0.907512964906     1.897340075962
    H            0.473059264625     2.123093486478    -1.502960207560
    H            0.872298960087     3.256063671955    -0.149365430174
    H           -1.076097604864     2.006995324949     3.164077999241
    H            1.185873777585    -4.297514286336    -1.720453046094

	Removing binary optimization data file.
	Cleaning optimization helper files.


Properties will be evaluated at   0.000000,   0.000000,   0.000000 [a0]
OEProp: No title given, name of density matrix used for the following properties is 'DF-MP2 relaxed density'
  Mulliken Charges: (a.u.)
   Center  Symbol    Alpha    Beta     Spin     Total
       1     C     3.08560  3.08560  0.00000 -0.17120
       2     C     2.96158  2.96158  0.00000  0.07683
       3     C     3.08433  3.08433  0.00000 -0.16866
       4     C     3.08873  3.08873  0.00000 -0.17747
       5     C     2.89095  2.89095  0.00000  0.21809
       6     C     3.09488  3.09488  0.00000 -0.18976
       7     C     2.92585  2.92585  0.00000  0.14830
       8     C     3.12774  3.12774  0.00000 -0.25548
       9     C     3.13802  3.13802  0.00000 -0.27605
      10     C     3.12826  3.12826  0.00000 -0.25653
      11     C     3.13807  3.13807  0.00000 -0.27614
      12     C     3.12767  3.12767  0.00000 -0.25535
      13     O     4.12609  4.12609  0.00000 -0.25218
      14     H     0.41443  0.41443  0.00000  0.17115
      15     H     0.41688  0.41688  0.00000  0.16624
      16     H     0.40568  0.40568  0.00000  0.18864
      17     H     0.41540  0.41540  0.00000  0.16919
      18     H     0.40127  0.40127  0.00000  0.19745
      19     H     0.40473  0.40473  0.00000  0.19055
      20     H     0.40771  0.40771  0.00000  0.18458
      21     H     0.39972  0.39972  0.00000  0.20057
      22     H     0.40334  0.40334  0.00000  0.19332
      23     H     0.42056  0.42056  0.00000  0.15888
      24     H     0.40774  0.40774  0.00000  0.18452
      25     H     0.40122  0.40122  0.00000  0.19756
      26     H     0.40464  0.40464  0.00000  0.19071
      27     H     0.39979  0.39979  0.00000  0.20042
      28     H     0.37910  0.37910  0.00000  0.24181

   Total alpha = 47.00000, Total beta = 47.00000, Total charge =  1.00000

    Molecular point group: c1
    Full point group: C1

    Geometry (in Angstrom), charge = 1, multiplicity = 1:

       Center              X                  Y                   Z               Mass       
    ------------   -----------------  -----------------  -----------------  -----------------
         C            1.575071472011    -0.721047212344    -0.410597849925    12.000000000000
         C            0.368576206390    -0.104578379031    -0.072441653814    12.000000000000
         C           -0.830393436094    -0.798299212756    -0.226616922624    12.000000000000
         C           -0.820632289948    -2.091575630827    -0.713434616821    12.000000000000
         C            0.378083534256    -2.709071905081    -1.051611112018    12.000000000000
         C            1.574296001591    -2.016011210555    -0.897090933803    12.000000000000
         C            0.477315178861     1.254276396405     0.428314716744    12.000000000000
         C            0.331536582658     2.369682461851    -0.459529781223    12.000000000000
         C           -1.222885753503     2.675270672708    -0.215759816162    12.000000000000
         C           -1.465345276064     2.963758896092     1.244613979765    12.000000000000
         C           -1.016667431153     1.805117283580     2.099924424191    12.000000000000
         C            0.534966655853     1.506390601381     1.838238074834    12.000000000000
         O            0.304147394891    -3.967422599329    -1.518174059567    15.994914619570
         H            2.511988871762    -0.200211852140    -0.298155095215     1.007825032230
         H            2.509646814532    -2.483877998610    -1.155926120773     1.007825032230
         H           -1.739017411249    -2.637820102192    -0.837545756356     1.007825032230
         H           -1.772816694125    -0.345977893209     0.026708720882     1.007825032230
         H            0.822952608900     0.645877861908     2.426693736543     1.007825032230
         H            1.072608886885     2.408707856336     2.104992134078     1.007825032230
         H           -1.810800208056     1.832016572818    -0.563464144517     1.007825032230
         H           -1.434382787334     3.519565943559    -0.863072722350     1.007825032230
         H           -2.526530835733     3.139395519227     1.404742860099     1.007825032230
         H           -0.941803067034     3.870257623599     1.538529654235     1.007825032230
         H           -1.591892976761     0.907512964906     1.897340075962     1.007825032230
         H            0.473059264625     2.123093486478    -1.502960207560     1.007825032230
         H            0.872298960087     3.256063671955    -0.149365430174     1.007825032230
         H           -1.076097604864     2.006995324949     3.164077999241     1.007825032230
         H            1.185873777585    -4.297514286336    -1.720453046094     1.007825032230



  Variable Map:
  ----------------------------------------------------------------------------
  "CURRENT CORRELATION ENERGY"           =>      -2.375263653080
  "CURRENT DIPOLE X"                     =>       1.229748601887
  "CURRENT DIPOLE Y"                     =>       5.075491441151
  "CURRENT DIPOLE Z"                     =>       1.792905588186
  "CURRENT ENERGY"                       =>    -540.308177968961
  "CURRENT REFERENCE ENERGY"             =>    -537.932914315881
  "CUSTOM SCS-MP2 CORRELATION ENERGY"    =>      -2.354885212259
  "CUSTOM SCS-MP2 TOTAL ENERGY"          =>    -540.287799528140
  "HF TOTAL ENERGY"                      =>    -537.932914315881
  "MP2 CORRELATION ENERGY"               =>      -2.375263653080
  "MP2 DOUBLES ENERGY"                   =>      -2.375263653080
  "MP2 OPPOSITE-SPIN CORRELATION ENERGY" =>      -1.803612301422
  "MP2 SAME-SPIN CORRELATION ENERGY"     =>      -0.571651351658
  "MP2 SINGLES ENERGY"                   =>      -0.000000000000
  "MP2 TOTAL ENERGY"                     =>    -540.308177968961
  "NUCLEAR REPULSION ENERGY"             =>     780.456244394812
  "ONE-ELECTRON ENERGY"                  =>   -2262.954202406134
  "OPTIMIZATION ITERATIONS"              =>      43.000000000000
  "PCM POLARIZATION ENERGY"              =>       0.000000000000
  "PE ENERGY"                            =>       0.000000000000
  "SCF DIPOLE X"                         =>       1.229748601887
  "SCF DIPOLE Y"                         =>       5.075491441151
  "SCF DIPOLE Z"                         =>       1.792905588186
  "SCF ITERATION ENERGY"                 =>    -537.932914315881
  "SCF ITERATIONS"                       =>      12.000000000000
  "SCF TOTAL ENERGY"                     =>    -537.932914315881
  "SCS-MP2 CORRELATION ENERGY"           =>      -2.354885212259
  "SCS-MP2 TOTAL ENERGY"                 =>    -540.287799528140
  "TWO-ELECTRON ENERGY"                  =>     944.565043695441



    Psi4 stopped on: Thursday, 09 December 2021 04:12AM
    Psi4 wall time for execution: 7:22:42.60

*** Psi4 exiting successfully. Buy a developer a beer!
