
    -----------------------------------------------------------------------
          Psi4: An Open-Source Ab Initio Electronic Structure Package
                               Psi4 1.4 release

                         Git: Rev {HEAD} 9485035 


    D. G. A. Smith, L. A. Burns, A. C. Simmonett, R. M. Parrish,
    M. C. Schieber, R. Galvelis, P. Kraus, H. Kruse, R. Di Remigio,
    A. Alenaizan, A. M. James, S. Lehtola, J. P. Misiewicz, M. Scheurer,
    R. A. Shaw, J. B. Schriber, Y. Xie, Z. L. Glick, D. A. Sirianni,
    J. S. O'Brien, J. M. Waldrop, A. Kumar, E. G. Hohenstein,
    B. P. Pritchard, B. R. Brooks, H. F. Schaefer III, A. Yu. Sokolov,
    K. Patkowski, A. E. DePrince III, U. Bozkaya, R. A. King,
    F. A. Evangelista, J. M. Turney, T. D. Crawford, C. D. Sherrill,
    J. Chem. Phys. 152(18) 184108 (2020). https://doi.org/10.1063/5.0006002

                            Additional Code Authors
    E. T. Seidl, C. L. Janssen, E. F. Valeev, M. L. Leininger,
    J. F. Gonthier, R. M. Richard, H. R. McAlexander, M. Saitow, X. Wang,
    P. Verma, and M. H. Lechner

             Previous Authors, Complete List of Code Contributors,
                       and Citations for Specific Modules
    https://github.com/psi4/psi4/blob/master/codemeta.json
    https://github.com/psi4/psi4/graphs/contributors
    http://psicode.org/psi4manual/master/introduction.html#citing-psifour

    -----------------------------------------------------------------------


    Psi4 started on: Friday, 28 January 2022 04:40PM

    Process ID: 448834
    Host:       skylm001.palmetto.clemson.edu
    PSIDATADIR: /home/maxbuskirk/.conda/envs/psifour/share/psi4
    Memory:     500.0 MiB
    Threads:    1
    
  ==> Input File <==

--------------------------------------------------------------------------
memory 62 GB

molecule mol {
0 1
C 0.00000000 0.00000000 0.00000000
C -1.33160900 -0.52821100 0.39484800
C -1.43071100 -1.45269700 1.36587800
C -2.62792500 -1.93591800 1.73239500
C -3.74244100 -1.49412800 1.13010500
C -3.65384200 -0.56756700 0.16376000
C -2.45408900 -0.08753000 -0.19926200
H -2.39924400 0.68070000 -0.98910300
H -4.56915100 -0.19773500 -0.33032400
H -4.72851800 -1.88886800 1.43070300
H -2.69633900 -2.69630400 2.52975600
H -0.52149000 -1.82349700 1.86898600
C 0.80291000 0.82866100 0.99372200
C 2.05469100 -0.01352700 1.29254400
C 2.33965600 -0.73613400 -0.03532100
C 0.96570300 -0.98706800 -0.64018800
H 0.68568600 -2.02295000 -0.82494200
C 0.34304200 0.10457800 -1.46989700
H -0.39656500 -0.20546400 -2.20363900
H 0.96769800 0.93522300 -1.78708200
H 2.89906800 -1.68689100 0.13106700
H 2.94532000 -0.09317900 -0.71653600
H 1.81957400 -0.76486100 2.08426400
H 2.91658800 0.60476700 1.63908400
H 0.22390900 1.05449200 1.91967800
H 1.08828700 1.79961000 0.52491500
}

set scf_type df
set basis cc-pVDZ
set reference rhf

mol.update_geometry()
mol.symmetrize(1e-3)

e, wfn = optimize('CCSD', return_wfn=True)
oeprop(wfn, "MULLIKEN_CHARGES")
mol.print_out()
print_variables()
--------------------------------------------------------------------------

  Memory set to  57.742 GiB by Python driver.

Scratch directory: /scratch1/maxbuskirk/
gradient() will perform analytic gradient computation.

*** tstart() called on skylm001.palmetto.clemson.edu
*** at Fri Jan 28 16:40:44 2022

   => Loading Basis Set <=

    Name: CC-PVDZ
    Role: ORBITAL
    Keyword: BASIS
    atoms 1-7, 13-16, 18  entry C          line   138 file /home/maxbuskirk/.conda/envs/psifour/share/psi4/basis/cc-pvdz.gbs 
    atoms 8-12, 17, 19-26 entry H          line    22 file /home/maxbuskirk/.conda/envs/psifour/share/psi4/basis/cc-pvdz.gbs 


         ---------------------------------------------------------
                                   SCF
               by Justin Turney, Rob Parrish, Andy Simmonett
                          and Daniel G. A. Smith
                              RHF Reference
                        1 Threads,  59127 MiB Core
         ---------------------------------------------------------

  ==> Geometry <==

    Molecular point group: c1
    Full point group: C1

    Geometry (in Angstrom), charge = 0, multiplicity = 1:

       Center              X                  Y                   Z               Mass       
    ------------   -----------------  -----------------  -----------------  -----------------
         C            0.674180460717     0.561564973389    -0.392519782418    12.000000000000
         C           -0.657428539283     0.033353973389     0.002328217582    12.000000000000
         C           -0.756530539283    -0.891132026611     0.973358217582    12.000000000000
         C           -1.953744539283    -1.374353026611     1.339875217582    12.000000000000
         C           -3.068260539283    -0.932563026611     0.737585217582    12.000000000000
         C           -2.979661539283    -0.006002026611    -0.228759782418    12.000000000000
         C           -1.779908539283     0.474034973389    -0.591781782418    12.000000000000
         H           -1.725063539283     1.242264973389    -1.381622782418     1.007825032230
         H           -3.894970539283     0.363829973389    -0.722843782418     1.007825032230
         H           -4.054337539283    -1.327303026611     1.038183217582     1.007825032230
         H           -2.022158539283    -2.134739026611     2.137236217582     1.007825032230
         H            0.152690460717    -1.261932026611     1.476466217582     1.007825032230
         C            1.477090460717     1.390225973389     0.601202217582    12.000000000000
         C            2.728871460717     0.548037973389     0.900024217582    12.000000000000
         C            3.013836460717    -0.174569026611    -0.427840782418    12.000000000000
         C            1.639883460717    -0.425503026611    -1.032707782418    12.000000000000
         H            1.359866460717    -1.461385026611    -1.217461782418     1.007825032230
         C            1.017222460717     0.666142973389    -1.862416782418    12.000000000000
         H            0.277615460717     0.356100973389    -2.596158782418     1.007825032230
         H            1.641878460717     1.496787973389    -2.179601782418     1.007825032230
         H            3.573248460717    -1.125326026611    -0.261452782418     1.007825032230
         H            3.619500460717     0.468385973389    -1.109055782418     1.007825032230
         H            2.493754460717    -0.203296026611     1.691744217582     1.007825032230
         H            3.590768460717     1.166331973389     1.246564217582     1.007825032230
         H            0.898089460717     1.616056973389     1.527158217582     1.007825032230
         H            1.762467460717     2.361174973389     0.132395217582     1.007825032230

  Running in c1 symmetry.

  Rotational constants: A =      0.07571  B =      0.02141  C =      0.01936 [cm^-1]
  Rotational constants: A =   2269.60782  B =    641.84797  C =    580.28171 [MHz]
  Nuclear repulsion =  680.105901532754501

  Charge       = 0
  Multiplicity = 1
  Electrons    = 86
  Nalpha       = 43
  Nbeta        = 43

  ==> Algorithm <==

  SCF Algorithm Type is DF.
  DIIS enabled.
  MOM disabled.
  Fractional occupation disabled.
  Guess Type is SAD.
  Energy threshold   = 1.00e-10
  Density threshold  = 1.00e-10
  Integral threshold = 1.00e-12

  ==> Primary Basis <==

  Basis Set: CC-PVDZ
    Blend: CC-PVDZ
    Number of shells: 114
    Number of basis functions: 238
    Number of Cartesian functions: 250
    Spherical Harmonics?: true
    Max angular momentum: 2

   => Loading Basis Set <=

    Name: (CC-PVDZ AUX)
    Role: JKFIT
    Keyword: DF_BASIS_SCF
    atoms 1-7, 13-16, 18  entry C          line   121 file /home/maxbuskirk/.conda/envs/psifour/share/psi4/basis/cc-pvdz-jkfit.gbs 
    atoms 8-12, 17, 19-26 entry H          line    51 file /home/maxbuskirk/.conda/envs/psifour/share/psi4/basis/cc-pvdz-jkfit.gbs 

  ==> Integral Setup <==

  DFHelper Memory: AOs need 0.474 GiB; user supplied 43.306 GiB. Using in-core AOs.

  ==> MemDFJK: Density-Fitted J/K Matrices <==

    J tasked:                   Yes
    K tasked:                   Yes
    wK tasked:                   No
    OpenMP threads:               1
    Memory [MiB]:             44345
    Algorithm:                 Core
    Schwarz Cutoff:           1E-12
    Mask sparsity (%):       7.3618
    Fitting Condition:        1E-10

   => Auxiliary Basis Set <=

  Basis Set: (CC-PVDZ AUX)
    Blend: CC-PVDZ-JKFIT
    Number of shells: 414
    Number of basis functions: 1162
    Number of Cartesian functions: 1322
    Spherical Harmonics?: true
    Max angular momentum: 3

  Minimum eigenvalue in the overlap matrix is 2.2188113727E-04.
  Reciprocal condition number of the overlap matrix is 3.1789031591E-05.
    Using symmetric orthogonalization.

  ==> Pre-Iterations <==

  SCF Guess: Superposition of Atomic Densities via on-the-fly atomic UHF (no occupation information).

   -------------------------
    Irrep   Nso     Nmo    
   -------------------------
     A        238     238 
   -------------------------
    Total     238     238
   -------------------------

  ==> Iterations <==

                           Total Energy        Delta E     RMS |[F,P]|

   @DF-RHF iter SAD:  -462.99075645330527   -4.62991e+02   0.00000e+00 
   @DF-RHF iter   1:  -462.28571459996016    7.05042e-01   2.59677e-03 DIIS
   @DF-RHF iter   2:  -462.50715742961972   -2.21443e-01   1.21011e-03 DIIS
   @DF-RHF iter   3:  -462.55080897332959   -4.36515e-02   2.68881e-04 DIIS
   @DF-RHF iter   4:  -462.55404039016469   -3.23142e-03   8.51334e-05 DIIS
   @DF-RHF iter   5:  -462.55427584671992   -2.35457e-04   2.14207e-05 DIIS
   @DF-RHF iter   6:  -462.55429352227156   -1.76756e-05   5.16394e-06 DIIS
   @DF-RHF iter   7:  -462.55429469788839   -1.17562e-06   1.76417e-06 DIIS
   @DF-RHF iter   8:  -462.55429482907664   -1.31188e-07   3.96162e-07 DIIS
   @DF-RHF iter   9:  -462.55429484203495   -1.29583e-08   1.51001e-07 DIIS
   @DF-RHF iter  10:  -462.55429484403714   -2.00220e-09   6.94856e-08 DIIS
   @DF-RHF iter  11:  -462.55429484463502   -5.97879e-10   3.09629e-08 DIIS
   @DF-RHF iter  12:  -462.55429484477077   -1.35742e-10   1.35228e-08 DIIS
   @DF-RHF iter  13:  -462.55429484479396   -2.31921e-11   4.91965e-09 DIIS
   @DF-RHF iter  14:  -462.55429484479686   -2.89901e-12   1.46669e-09 DIIS
   @DF-RHF iter  15:  -462.55429484479964   -2.78533e-12   4.28708e-10 DIIS
   @DF-RHF iter  16:  -462.55429484479578    3.86535e-12   1.52644e-10 DIIS
   @DF-RHF iter  17:  -462.55429484479828   -2.50111e-12   6.46951e-11 DIIS
  Energy and wave function converged.


  ==> Post-Iterations <==

    Orbital Energies [Eh]
    ---------------------

    Doubly Occupied:                                                      

       1A    -11.232531     2A    -11.230530     3A    -11.229445  
       4A    -11.227926     5A    -11.226830     6A    -11.224786  
       7A    -11.222957     8A    -11.222578     9A    -11.221950  
      10A    -11.219319    11A    -11.218457    12A    -11.217096  
      13A     -1.197139    14A     -1.164011    15A     -1.044019  
      16A     -1.026293    17A     -1.019662    18A     -0.953014  
      19A     -0.850294    20A     -0.830137    21A     -0.813004  
      22A     -0.770077    23A     -0.742910    24A     -0.703264  
      25A     -0.652220    26A     -0.643107    27A     -0.625682  
      28A     -0.603476    29A     -0.581979    30A     -0.575436  
      31A     -0.564815    32A     -0.563555    33A     -0.526502  
      34A     -0.511023    35A     -0.484221    36A     -0.475472  
      37A     -0.470286    38A     -0.465620    39A     -0.461432  
      40A     -0.409676    41A     -0.386850    42A     -0.341664  
      43A     -0.324829  

    Virtual:                                                              

      44A      0.147325    45A      0.153055    46A      0.176853  
      47A      0.191046    48A      0.199665    49A      0.210251  
      50A      0.229953    51A      0.233547    52A      0.241469  
      53A      0.253847    54A      0.258236    55A      0.265931  
      56A      0.268560    57A      0.285338    58A      0.302859  
      59A      0.308890    60A      0.339325    61A      0.354775  
      62A      0.371567    63A      0.385379    64A      0.401824  
      65A      0.421347    66A      0.437817    67A      0.465771  
      68A      0.484469    69A      0.493204    70A      0.501220  
      71A      0.513862    72A      0.531860    73A      0.569483  
      74A      0.603366    75A      0.629064    76A      0.640777  
      77A      0.657953    78A      0.664685    79A      0.678470  
      80A      0.691550    81A      0.705235    82A      0.712613  
      83A      0.721193    84A      0.727916    85A      0.732995  
      86A      0.743144    87A      0.749142    88A      0.755638  
      89A      0.765338    90A      0.779283    91A      0.796222  
      92A      0.813355    93A      0.823899    94A      0.832813  
      95A      0.840774    96A      0.857338    97A      0.866296  
      98A      0.868756    99A      0.872162   100A      0.883336  
     101A      0.890406   102A      0.893578   103A      0.897594  
     104A      0.902737   105A      0.908890   106A      0.910830  
     107A      0.919768   108A      0.925713   109A      0.933331  
     110A      0.938861   111A      0.957018   112A      0.964831  
     113A      0.980634   114A      0.987053   115A      1.014170  
     116A      1.041484   117A      1.066365   118A      1.148677  
     119A      1.154868   120A      1.162535   121A      1.175525  
     122A      1.179350   123A      1.184755   124A      1.219753  
     125A      1.263115   126A      1.271172   127A      1.271817  
     128A      1.310515   129A      1.315873   130A      1.328242  
     131A      1.332896   132A      1.350442   133A      1.355143  
     134A      1.381050   135A      1.412894   136A      1.430441  
     137A      1.436549   138A      1.462563   139A      1.472312  
     140A      1.480041   141A      1.503007   142A      1.541344  
     143A      1.567613   144A      1.604562   145A      1.625010  
     146A      1.665133   147A      1.691385   148A      1.706851  
     149A      1.737898   150A      1.755210   151A      1.776675  
     152A      1.788379   153A      1.799025   154A      1.806247  
     155A      1.822069   156A      1.838808   157A      1.846359  
     158A      1.865665   159A      1.875372   160A      1.882384  
     161A      1.896735   162A      1.906718   163A      1.912211  
     164A      1.920849   165A      1.930131   166A      1.938771  
     167A      1.952375   168A      1.956538   169A      1.962061  
     170A      1.969813   171A      1.982068   172A      1.986360  
     173A      1.993379   174A      2.001993   175A      2.005678  
     176A      2.016906   177A      2.030034   178A      2.049449  
     179A      2.062141   180A      2.064936   181A      2.081353  
     182A      2.102915   183A      2.118674   184A      2.138527  
     185A      2.148605   186A      2.170650   187A      2.184292  
     188A      2.195023   189A      2.216221   190A      2.222917  
     191A      2.235325   192A      2.245112   193A      2.257419  
     194A      2.276729   195A      2.280826   196A      2.299039  
     197A      2.305430   198A      2.312314   199A      2.321220  
     200A      2.324191   201A      2.331130   202A      2.367221  
     203A      2.391045   204A      2.411758   205A      2.449366  
     206A      2.461227   207A      2.467268   208A      2.476929  
     209A      2.491962   210A      2.520535   211A      2.585134  
     212A      2.588376   213A      2.616495   214A      2.631978  
     215A      2.655428   216A      2.703463   217A      2.717010  
     218A      2.756779   219A      2.762029   220A      2.776771  
     221A      2.808269   222A      2.818229   223A      2.824220  
     224A      2.848867   225A      2.873744   226A      2.910998  
     227A      2.919834   228A      2.986768   229A      3.041706  
     230A      3.062269   231A      3.080647   232A      3.088255  
     233A      3.139838   234A      3.188173   235A      3.272789  
     236A      3.297369   237A      3.388258   238A      4.120904  

    Final Occupation by Irrep:
              A 
    DOCC [    43 ]

  @DF-RHF Final Energy:  -462.55429484479828

   => Energetics <=

    Nuclear Repulsion Energy =            680.1059015327545012
    One-Electron Energy =               -1974.3682410060835082
    Two-Electron Energy =                 831.7080446285308426
    Total Energy =                       -462.5542948447982781

Computation Completed


Properties will be evaluated at   0.000000,   0.000000,   0.000000 [a0]

Properties computed using the SCF density matrix

  Nuclear Dipole Moment: [e a0]
     X:     7.1935      Y:     1.4596      Z:    -0.2048

  Electronic Dipole Moment: [e a0]
     X:    -7.1085      Y:    -1.4804      Z:     0.2209

  Dipole Moment: [e a0]
     X:     0.0850      Y:    -0.0209      Z:     0.0161     Total:     0.0890

  Dipole Moment: [D]
     X:     0.2160      Y:    -0.0530      Z:     0.0410     Total:     0.2262


*** tstop() called on skylm001.palmetto.clemson.edu at Fri Jan 28 16:41:01 2022
Module time:
	user time   =      16.44 seconds =       0.27 minutes
	system time =       0.72 seconds =       0.01 minutes
	total time  =         17 seconds =       0.28 minutes
Total time:
	user time   =      16.44 seconds =       0.27 minutes
	system time =       0.72 seconds =       0.01 minutes
	total time  =         17 seconds =       0.28 minutes
 MINTS: Wrapper to libmints.
   by Justin Turney

   Calculation information:
      Number of threads:                 1
      Number of atoms:                  26
      Number of AO shells:             114
      Number of SO shells:             114
      Number of primitives:            334
      Number of atomic orbitals:       250
      Number of basis functions:       238

      Number of irreps:                  1
      Integral cutoff                 1.00e-12
      Number of functions per irrep: [ 238 ]

 OEINTS: Overlap, kinetic, potential, dipole, and quadrupole integrals
         stored in file 35.

      Computing two-electron integrals...done
      Computed 291180230 non-zero two-electron integrals.
        Stored in file 33.


*** tstart() called on skylm001.palmetto.clemson.edu
*** at Fri Jan 28 16:45:30 2022


	Wfn Parameters:
	--------------------
	Wavefunction         = CCSD
	Number of irreps     = 1
	Number of MOs        = 238
	Number of active MOs = 238
	AO-Basis             = NONE
	Semicanonical        = false
	Reference            = RHF
	Print Level          = 1

	IRREP	# MOs	# FZDC	# DOCC	# SOCC	# VIRT	# FZVR
	-----	-----	------	------	------	------	------
	 A	   238	    0	    43	    0	    195	    0
	Transforming integrals...
	IWL integrals will be deleted.
	(OO|OO)...
	Presorting SO-basis two-electron integrals.
	Sorting File: SO Ints (nn|nn) nbuckets = 1
	Constructing frozen core operators
	Starting first half-transformation.
	Sorting half-transformed integrals.
	First half integral transformation complete.
	Starting second half-transformation.
	Two-electron integral transformation complete.
	(OO|OV)...
	Starting second half-transformation.
	Two-electron integral transformation complete.
	(OO|VV)...
	Starting second half-transformation.
	Two-electron integral transformation complete.
	(OV|OO)...
	Starting first half-transformation.
	Sorting half-transformed integrals.
	First half integral transformation complete.
	Starting second half-transformation.
	Two-electron integral transformation complete.
	(OV|OV)...
	Starting second half-transformation.
	Two-electron integral transformation complete.
	(OV|VV)...
	Starting second half-transformation.
	Two-electron integral transformation complete.
	(VV|OO)...
	Starting first half-transformation.
	Sorting half-transformed integrals.
	First half integral transformation complete.
	Starting second half-transformation.
	Two-electron integral transformation complete.
	(VV|OV)...
	Starting second half-transformation.
	Two-electron integral transformation complete.
	(VV|VV)...
	Starting second half-transformation.
	Two-electron integral transformation complete.
	Frozen core energy     =      0.00000000000000

	Size of irrep 0 of <ab|cd> integrals:   1445.901 (MW) /  11567.205 (MB)
	Total:                                  1445.901 (MW) /  11567.205 (MB)

	Size of irrep 0 of <ia|bc> integrals:    318.840 (MW) /   2550.717 (MB)
	Total:                                   318.840 (MW) /   2550.717 (MB)

	Size of irrep 0 of tijab amplitudes:      70.308 (MW) /    562.466 (MB)
	Total:                                    70.308 (MW) /    562.466 (MB)

	Nuclear Rep. energy          =    680.10590153275450
	SCF energy                   =   -462.55429484479828
	One-electron energy          =  -1974.36824107582083
	Two-electron energy          =    831.70745473569650
	Reference energy             =   -462.55488480736983

*** tstop() called on skylm001.palmetto.clemson.edu at Fri Jan 28 16:53:37 2022
Module time:
	user time   =     217.24 seconds =       3.62 minutes
	system time =     101.49 seconds =       1.69 minutes
	total time  =        487 seconds =       8.12 minutes
Total time:
	user time   =     399.65 seconds =       6.66 minutes
	system time =     110.24 seconds =       1.84 minutes
	total time  =        773 seconds =      12.88 minutes
            **************************
            *                        *
            *        CCENERGY        *
            *                        *
            **************************

    Nuclear Rep. energy (wfn)     =  680.105901532754501
    SCF energy          (wfn)     = -462.554294844798278
    Reference energy    (file100) = -462.554884807369831

    Input parameters:
    -----------------
    Wave function   =     CCSD
    Reference wfn   =     RHF
    Brueckner       =     No
    Memory (Mbytes) =     62000.0
    Maxiter         =     50
    R_Convergence   =     1.0e-07
    E_Convergence   =     1.0e-08
    Restart         =     Yes
    DIIS            =     Yes
    AO Basis        =     NONE
    ABCD            =     NEW
    Cache Level     =     2
    Cache Type      =     LOW
    Print Level     =     1
    Num. of threads =     1
    # Amps to Print =     10
    Print MP2 Amps? =     No
    Analyze T2 Amps =     No
    Print Pair Ener =     No
    Local CC        =     No
    SCS-MP2         =     False
    SCSN-MP2        =     False
    SCS-CCSD        =     False

MP2 correlation energy -1.6418471825153527
                Solving CC Amplitude Equations
                ------------------------------
  Iter             Energy              RMS        T1Diag      D1Diag    New D1Diag    D2Diag
  ----     ---------------------    ---------   ----------  ----------  ----------   --------
     0        -1.641847182515353    0.000e+00    0.000000    0.000000    0.000000    0.169766
     1        -1.673429454578475    1.184e-01    0.006331    0.019795    0.019795    0.161507
     2        -1.717751915792562    3.939e-02    0.006572    0.020254    0.020254    0.173305
     3        -1.726073565439427    1.523e-02    0.007349    0.023137    0.023137    0.176326
     4        -1.726115485136178    4.310e-03    0.007402    0.023447    0.023447    0.177784
     5        -1.726278598388117    1.639e-03    0.007424    0.023596    0.023596    0.178436
     6        -1.726302561187316    4.760e-04    0.007422    0.023626    0.023626    0.178586
     7        -1.726287185556660    1.587e-04    0.007420    0.023628    0.023628    0.178628
     8        -1.726285886939766    4.300e-05    0.007420    0.023632    0.023632    0.178639
     9        -1.726287504593428    1.416e-05    0.007420    0.023633    0.023633    0.178641
    10        -1.726286211445068    5.751e-06    0.007420    0.023634    0.023634    0.178642
    11        -1.726286266657410    1.979e-06    0.007420    0.023635    0.023635    0.178642
    12        -1.726286148259634    8.569e-07    0.007420    0.023635    0.023635    0.178642
    13        -1.726286141570146    3.588e-07    0.007420    0.023635    0.023635    0.178642
    14        -1.726286150619585    1.332e-07    0.007420    0.023635    0.023635    0.178642
    15        -1.726286150219440    6.309e-08    0.007420    0.023635    0.023635    0.178642

    Iterations converged.


    Largest TIA Amplitudes:
             41  41        -0.0153307381
             41  82         0.0085882385
             32  35         0.0076167935
             42  77         0.0072330656
             41  40        -0.0060928280
             42  58        -0.0060348496
             23  29        -0.0060082276
             42  37         0.0054160191
             42  38         0.0053891314
             42  36        -0.0053387345

    Largest TIjAb Amplitudes:
     41  41   0   0        -0.0655490439
     42  42   1   1        -0.0547184195
     41  41   1   1        -0.0420831270
     42  42   0   0        -0.0373766408
     41  42   1   0         0.0312121045
     42  41   0   1         0.0312121045
     40  42   1   1         0.0189576023
     42  40   1   1         0.0189576023
     41  41   0   1         0.0177816390
     41  41   1   0         0.0177816390

    SCF energy       (wfn)                    = -462.554294844798278
    Reference energy (file100)                = -462.554884807369831

    Opposite-spin MP2 correlation energy      =   -1.213982706612130
    Same-spin MP2 correlation energy          =   -0.427864475903223
    Singles MP2 correlation energy            =   -0.000000000000000
    MP2 correlation energy                    =   -1.641847182515353
      * MP2 total energy                      = -464.196731989885166

    Opposite-spin CCSD correlation energy     =   -1.339609256796683
    Same-spin CCSD correlation energy         =   -0.386676893422757
    Singles CCSD correlation energy           =    0.000000000000000
    CCSD correlation energy                   =   -1.726286150219440
      * CCSD total energy                     = -464.281170957589268


			**************************
			*                        *
			*         CCHBAR         *
			*                        *
			**************************


			**************************
			*        CCLAMBDA        *
			**************************


	Nuclear Rep. energy (wfn)     =  680.105901532754501
	Reference           (wfn)     =                    0
	SCF energy          (wfn)     = -462.554294844798278
	Reference energy    (CC_INFO) = -462.554884807369831
	CCSD energy         (CC_INFO) =   -1.726286150219440
	Total CCSD energy   (CC_INFO) = -464.281170957589268

	Input parameters:
	-----------------
	Maxiter           =     50
	Convergence       = 1.0e-07
	Restart           =     No
	Cache Level       =     2
	Model III         =     No
	DIIS              =     Yes
	AO Basis          =     No
	ABCD              =     NEW
	Local CC          =     No
	Parameters for left-handed eigenvectors:
	    Irr   Root  Ground-State?    EOM energy        R0
	  1   0     0        Yes       0.0000000000   1.0000000000
	Labels for eigenvector 1:
	LIA 0 -1, Lia 0 -1, LIJAB 0 -1, Lijab 0 -1, LIjAb 0 -1, 2LIjAb - LIjbA 0 -1
	Symmetry of left-hand state: A
	Symmetry of left-hand eigenvector: A

	          Solving Lambda Equations
	          ------------------------
	Iter     PseudoEnergy or Norm         RMS  
	----     ---------------------     --------
	   0        -1.726290987875084    0.000e+00
	   1        -1.677205015823373    2.726e-02
	   2        -1.672809346165985    5.965e-03
	   3        -1.671579646018115    1.852e-03
	   4        -1.671586788186664    5.483e-04
	   5        -1.671602673565192    2.057e-04
	   6        -1.671594974790988    6.257e-05
	   7        -1.671594711491651    2.516e-05
	   8        -1.671595139832014    7.858e-06
	   9        -1.671595107104091    3.428e-06
	  10        -1.671595212928216    1.370e-06
	  11        -1.671595158117964    6.117e-07
	  12        -1.671595148023094    2.275e-07
	  13        -1.671595146978067    9.726e-08

	Largest LIA Amplitudes:
	         41  41        -0.0126537830
	         41  82         0.0068800585
	         32  35         0.0064545323
	         42  77         0.0056810809
	         41  40        -0.0050637492
	         42  58        -0.0047531574
	         42  36        -0.0044789287
	         42  37         0.0044688701
	         42  38         0.0044232773
	         25  30        -0.0043543936

	Largest LIjAb Amplitudes:
	 41  41   0   0        -0.0616892909
	 42  42   1   1        -0.0513572104
	 41  41   1   1        -0.0388697980
	 42  42   0   0        -0.0343727251
	 41  42   1   0         0.0294586294
	 42  41   0   1         0.0294586294
	 40  42   1   1         0.0178768722
	 42  40   1   1         0.0178768722
	 41  41   0   1         0.0173949118
	 41  41   1   0         0.0173949118

	Iterations converged.

	Overlap <L|e^T> =        0.35582475598

			**************************
			*                        *
			*        CCDENSITY       *
			*                        *
			**************************


	Input parameters:
	-----------------
	Wave function    =   CCSD
	Reference wfn    =   RHF
	Dertype          = 1
	Tolerance        = 1.0e-14
	Cache Level      = 2
	AO Basis         = No
	OPDM Only        = No
	Relax OPDM       = Yes
	Compute Xi       = No
	Use Zeta         = No
	Xi connected     = Yes
	Compute NO       = No

	Nuclear Rep. energy (wfn)     =  680.105901532754501
	SCF energy          (wfn)     = -462.554294844798278
	Reference energy    (file100) = -462.554884807369831
	CCSD energy         (CC_INFO) =   -1.726286150219440
	Total CCSD energy   (CC_INFO) = -464.281170957589268
	Number of States = 1

	Ground?  State     EOM Energy       R0
	  Yes     0  A    0.0000000000   1.00000000

	Virial Theorem Data:
	--------------------
	Kinetic energy (ref)   =  462.904249881840144
	Kinetic energy (corr)  =    1.581824575591050
	Kinetic energy (total) =  464.486074457431187
	-V/T (ref)             =    1.999245275724819
	-V/T (corr)            =    2.091325913668026
	-V/T (total)           =    1.999558859756816
    Molecular point group: c1
    Full point group: C1

    Geometry (in Bohr), charge = 0, multiplicity = 1:

       Center              X                  Y                   Z       
    ------------   -----------------  -----------------  -----------------
         C            1.274016429890     1.061204001356    -0.741754887595
         C           -1.242359886305     0.063029874902     0.004399693590
         C           -1.429635524790    -1.683995471918     1.839380453193
         C           -3.692042098354    -2.597150819988     2.531997203518
         C           -5.798172100795    -1.762288715022     1.393834055416
         C           -5.630744255806    -0.011342186492    -0.432293337290
         C           -3.363539667609     0.895796273594    -1.118305494806
         H           -3.259897638258     2.347540574955    -2.610888667463
         H           -7.360427585972     0.687539005938    -1.365976780260
         H           -7.661587569408    -2.508239205785     1.961881949276
         H           -3.821325821501    -4.034072109621     4.038791116639
         H            0.288543152725    -2.384705919238     2.790116784720
         C            2.791296433281     2.627146342204     1.136107537248
         C            5.156819692333     1.035641676057     1.700799277509
         C            5.695325497674    -0.329887650282    -0.808501904072
         C            3.098930618423    -0.804084185848    -1.951534876399
         H            2.569775177950    -2.761617464139    -2.300669336982
         C            1.922271859419     1.258827780104    -3.519457650227
         H            0.524617188947     0.672933312715    -4.906029076972
         H            3.102700622043     2.828519337585    -4.118850431330
         H            6.752460968968    -2.126557992144    -0.494074153509
         H            6.839864581723     0.885121210712    -2.095811686626
         H            4.712512954893    -0.384173812688     3.196933245557
         H            6.785568970686     2.204048001071     2.355664969025
         H            1.697143116915     3.053905082842     2.885910781472
         H            3.330580805786     4.461974033991     0.250190701550

	Presorting MO-basis TPDM.
	Sorting File: MO TPDM (AA|AA) nbuckets = 1
	Starting first half-transformation.
	Sorting half-transformed TPDM.
	First half integral transformation complete.


  -Total gradient:
     Atom            X                  Y                   Z
    ------   -----------------  -----------------  -----------------
       1        0.002869441773     0.014860274435     0.005659334836
       2       -0.051683365594    -0.028887188921     0.019260704089
       3       -0.059027894125     0.026859905740    -0.037217278991
       4        0.003177964973     0.052489061593    -0.056196300937
       5        0.071821360560     0.027821112101    -0.020728560793
       6        0.064726618249    -0.024955925745     0.033919393145
       7       -0.000934683859    -0.051606210221     0.053124766370
       8       -0.001697205086     0.003408238880    -0.003365631696
       9       -0.004319968226     0.001620396667    -0.002097069025
      10       -0.004632400641    -0.001675873713     0.001546813151
      11       -0.000623834134    -0.003424394877     0.003748586110
      12        0.002697763471    -0.001675320830     0.003077838481
      13        0.000025905615    -0.014902696249    -0.006944539200
      14       -0.008265559433    -0.003325571473    -0.005921336681
      15       -0.014525349027     0.005135381752     0.003377730547
      16       -0.009644676270     0.001019453436    -0.001696321140
      17        0.005619718134     0.002561153615     0.001324544338
      18       -0.001214261894    -0.002110954140    -0.000876457383
      19        0.005770157032     0.000176519466     0.002068678731
      20       -0.005121404073    -0.004828599678     0.002015648970
      21        0.002622662342    -0.007000149586     0.003188041302
      22        0.000446990631     0.003783990554    -0.004983879368
      23       -0.001790381152    -0.004659095706     0.004493258254
      24        0.005442446886     0.005090135803    -0.000118395056
      25       -0.002591083024     0.000647058979     0.007865351126
      26        0.000851036873     0.003579298118    -0.004524919182


			-----------------------------------------
			 OPTKING 2.0: for geometry optimizations 
			  - R.A. King,  Bethel University        
			-----------------------------------------

	Internal coordinates to be generated automatically.
	Detected frag 1 with atoms:  1 2 3 4 5 6 7 8 9 10 11 12 13 14 15 16 17 18 19 20
	 21 22 23 24 25 26
	---Fragment 1 Bond Connectivity---
	 1 : 2 13 16 18
	 2 : 1 3 7
	 3 : 2 4 12
	 4 : 3 5 11
	 5 : 4 6 10
	 6 : 5 7 9
	 7 : 2 6 8
	 8 : 7
	 9 : 6
	 10 : 5
	 11 : 4
	 12 : 3
	 13 : 1 14 25 26
	 14 : 13 15 23 24
	 15 : 14 16 21 22
	 16 : 1 15 17 18
	 17 : 16
	 18 : 1 16 19 20
	 19 : 18
	 20 : 18
	 21 : 15
	 22 : 15
	 23 : 14
	 24 : 14
	 25 : 13
	 26 : 13

	---Fragment 1 Geometry and Gradient---
	 C           1.2740164299        1.0612040014       -0.7417548876
	 C          -1.2423598863        0.0630298749        0.0043996936
	 C          -1.4296355248       -1.6839954719        1.8393804532
	 C          -3.6920420984       -2.5971508200        2.5319972035
	 C          -5.7981721008       -1.7622887150        1.3938340554
	 C          -5.6307442558       -0.0113421865       -0.4322933373
	 C          -3.3635396676        0.8957962736       -1.1183054948
	 H          -3.2598976383        2.3475405750       -2.6108886675
	 H          -7.3604275860        0.6875390059       -1.3659767803
	 H          -7.6615875694       -2.5082392058        1.9618819493
	 H          -3.8213258215       -4.0340721096        4.0387911166
	 H           0.2885431527       -2.3847059192        2.7901167847
	 C           2.7912964333        2.6271463422        1.1361075372
	 C           5.1568196923        1.0356416761        1.7007992775
	 C           5.6953254977       -0.3298876503       -0.8085019041
	 C           3.0989306184       -0.8040841858       -1.9515348764
	 H           2.5697751780       -2.7616174641       -2.3006693370
	 C           1.9222718594        1.2588277801       -3.5194576502
	 H           0.5246171889        0.6729333127       -4.9060290770
	 H           3.1027006220        2.8285193376       -4.1188504313
	 H           6.7524609690       -2.1265579921       -0.4940741535
	 H           6.8398645817        0.8851212107       -2.0958116866
	 H           4.7125129549       -0.3841738127        3.1969332456
	 H           6.7855689707        2.2040480011        2.3556649690
	 H           1.6971431169        3.0539050828        2.8859107815
	 H           3.3305808058        4.4619740340        0.2501907016
	             0.0028694418        0.0148602744        0.0056593348
	            -0.0516833656       -0.0288871889        0.0192607041
	            -0.0590278941        0.0268599057       -0.0372172790
	             0.0031779650        0.0524890616       -0.0561963009
	             0.0718213606        0.0278211121       -0.0207285608
	             0.0647266182       -0.0249559257        0.0339193931
	            -0.0009346839       -0.0516062102        0.0531247664
	            -0.0016972051        0.0034082389       -0.0033656317
	            -0.0043199682        0.0016203967       -0.0020970690
	            -0.0046324006       -0.0016758737        0.0015468132
	            -0.0006238341       -0.0034243949        0.0037485861
	             0.0026977635       -0.0016753208        0.0030778385
	             0.0000259056       -0.0149026962       -0.0069445392
	            -0.0082655594       -0.0033255715       -0.0059213367
	            -0.0145253490        0.0051353818        0.0033777305
	            -0.0096446763        0.0010194534       -0.0016963211
	             0.0056197181        0.0025611536        0.0013245443
	            -0.0012142619       -0.0021109541       -0.0008764574
	             0.0057701570        0.0001765195        0.0020686787
	            -0.0051214041       -0.0048285997        0.0020156490
	             0.0026226623       -0.0070001496        0.0031880413
	             0.0004469906        0.0037839906       -0.0049838794
	            -0.0017903812       -0.0046590957        0.0044932583
	             0.0054424469        0.0050901358       -0.0001183951
	            -0.0025910830        0.0006470590        0.0078653511
	             0.0008510369        0.0035792981       -0.0045249192

	Previous optimization step data not found.  Starting new optimization.

	---Fragment 1 Intrafragment Coordinates---
	 - Coordinate -           - BOHR/RAD -       - ANG/DEG -
	 R(1,2)           =         2.808068	       1.485966
	 R(1,13)          =         2.877617	       1.522769
	 R(1,16)          =         2.876314	       1.522080
	 R(1,18)          =         2.859182	       1.513014
	 R(2,3)           =         2.540536	       1.344394
	 R(2,7)           =         2.540348	       1.344295
	 R(3,4)           =         2.536149	       1.342072
	 R(3,12)          =         2.084954	       1.103310
	 R(4,5)           =         2.535388	       1.341670
	 R(4,11)          =         2.086117	       1.103926
	 R(5,6)           =         2.535466	       1.341711
	 R(5,10)          =         2.086010	       1.103869
	 R(6,7)           =         2.536480	       1.342247
	 R(6,9)           =         2.086146	       1.103941
	 R(7,8)           =         2.084732	       1.103193
	 R(13,14)         =         2.906452	       1.538028
	 R(13,25)         =         2.107393	       1.115184
	 R(13,26)         =         2.107669	       1.115330
	 R(14,15)         =         2.907104	       1.538373
	 R(14,23)         =         2.109906	       1.116514
	 R(14,24)         =         2.108755	       1.115905
	 R(15,16)         =         2.876222	       1.522031
	 R(15,21)         =         2.108180	       1.115601
	 R(15,22)         =         2.107933	       1.115470
	 R(16,17)         =         2.057629	       1.088850
	 R(16,18)         =         2.845789	       1.505927
	 R(18,19)         =         2.054091	       1.086978
	 R(18,20)         =         2.053440	       1.086634
	 B(1,2,3)         =         2.097193	     120.160299
	 B(1,2,7)         =         2.110985	     120.950530
	 B(1,13,14)       =         1.831692	     104.948207
	 B(1,13,25)       =         1.958741	     112.227590
	 B(1,13,26)       =         1.911711	     109.532970
	 B(1,16,15)       =         1.874094	     107.377697
	 B(1,16,17)       =         2.123695	     121.678750
	 B(1,16,18)       =         1.046394	      59.953961
	 B(1,18,16)       =         1.056847	      60.552892
	 B(1,18,19)       =         2.073511	     118.803448
	 B(1,18,20)       =         2.056409	     117.823531
	 B(2,1,13)        =         2.085797	     119.507362
	 B(2,1,16)        =         2.037336	     116.730761
	 B(2,1,18)        =         2.078179	     119.070878
	 B(2,3,4)         =         2.106688	     120.704322
	 B(2,3,12)        =         2.094072	     119.981496
	 B(2,7,6)         =         2.105497	     120.636109
	 B(2,7,8)         =         2.098079	     120.211078
	 B(3,2,7)         =         2.074972	     118.887127
	 B(3,4,5)         =         2.094250	     119.991675
	 B(3,4,11)        =         2.095029	     120.036307
	 B(4,3,12)        =         2.082423	     119.314054
	 B(4,5,6)         =         2.089625	     119.726715
	 B(4,5,10)        =         2.096771	     120.136139
	 B(5,4,11)        =         2.093906	     119.972004
	 B(5,6,7)         =         2.095313	     120.052591
	 B(5,6,9)         =         2.093185	     119.930676
	 B(6,5,10)        =         2.096783	     120.136833
	 B(6,7,8)         =         2.079587	     119.151569
	 B(7,6,9)         =         2.094682	     120.016412
	 B(13,1,16)       =         1.867994	     107.028148
	 B(13,1,18)       =         2.067829	     118.477850
	 B(13,14,15)      =         1.813439	     103.902375
	 B(13,14,23)      =         1.912254	     109.564068
	 B(13,14,24)      =         1.966615	     112.678735
	 B(14,13,25)      =         1.952103	     111.847282
	 B(14,13,26)      =         1.928485	     110.494038
	 B(14,15,16)      =         1.826838	     104.670098
	 B(14,15,21)      =         1.943853	     111.374556
	 B(14,15,22)      =         1.935810	     110.913764
	 B(15,14,23)      =         1.912387	     109.571731
	 B(15,14,24)      =         1.966263	     112.658582
	 B(15,16,17)      =         2.044771	     117.156776
	 B(15,16,18)      =         2.063138	     118.209116
	 B(16,1,18)       =         1.038351	      59.493147
	 B(16,15,21)      =         1.951339	     111.803495
	 B(16,15,22)      =         1.920347	     110.027783
	 B(16,18,19)      =         2.033633	     116.518588
	 B(16,18,20)      =         2.068337	     118.506957
	 B(17,16,18)      =         2.082677	     119.328625
	 B(19,18,20)      =         1.995602	     114.339595
	 B(21,15,22)      =         1.886035	     108.061852
	 B(23,14,24)      =         1.891560	     108.378423
	 B(25,13,26)      =         1.881325	     107.791982
	 D(1,2,3,4)       =         3.140015	     179.909589
	 D(1,2,3,12)      =        -0.003867	      -0.221554
	 D(1,2,7,6)       =        -3.139833	    -179.899175
	 D(1,2,7,8)       =        -0.005382	      -0.308370
	 D(1,13,14,15)    =         0.582496	      33.374548
	 D(1,13,14,23)    =        -1.459777	     -83.639076
	 D(1,13,14,24)    =         2.716087	     155.620349
	 D(1,16,15,14)    =         0.369820	      21.189108
	 D(1,16,15,21)    =         2.476381	     141.886172
	 D(1,16,15,22)    =        -1.710967	     -98.031167
	 D(1,16,18,19)    =        -1.914138	    -109.672055
	 D(1,16,18,20)    =         1.878980	     107.657628
	 D(1,18,16,15)    =        -1.652158	     -94.661664
	 D(1,18,16,17)    =         1.950772	     111.771010
	 D(2,1,13,14)     =         2.008008	     115.050369
	 D(2,1,13,25)     =        -0.115728	      -6.630742
	 D(2,1,13,26)     =        -2.204619	    -126.315365
	 D(2,1,16,15)     =        -2.398398	    -137.418108
	 D(2,1,16,17)     =         0.028224	       1.617120
	 D(2,1,16,18)     =         1.912091	     109.554741
	 D(2,1,18,16)     =        -1.843945	    -105.650253
	 D(2,1,18,19)     =         0.005139	       0.294417
	 D(2,1,18,20)     =         2.540852	     145.580092
	 D(2,3,4,5)       =        -0.002820	      -0.161589
	 D(2,3,4,11)      =         3.139507	     179.880511
	 D(2,7,6,5)       =         0.002611	       0.149602
	 D(2,7,6,9)       =         3.140602	     179.943236
	 D(3,2,1,13)      =        -1.152404	     -66.027913
	 D(3,2,1,16)      =         1.141569	      65.407068
	 D(3,2,1,18)      =         2.332995	     133.670791
	 D(3,2,7,6)       =        -0.007305	      -0.418518
	 D(3,2,7,8)       =         3.127146	     179.172287
	 D(3,4,5,6)       =        -0.001991	      -0.114053
	 D(3,4,5,10)      =        -3.140037	    -179.910849
	 D(4,3,2,7)       =         0.007413	       0.424721
	 D(4,5,6,7)       =         0.002094	       0.119979
	 D(4,5,6,9)       =        -3.135900	    -179.673834
	 D(5,4,3,12)      =         3.141046	     179.968688
	 D(5,6,7,8)       =        -3.131915	    -179.445494
	 D(6,5,4,11)      =         3.138868	     179.843874
	 D(7,2,1,13)      =         1.980009	     113.446166
	 D(7,2,1,16)      =        -2.009203	    -115.118853
	 D(7,2,1,18)      =        -0.817776	     -46.855130
	 D(7,2,3,12)      =        -3.136469	    -179.706422
	 D(7,6,5,10)      =         3.140140	     179.916773
	 D(8,7,6,9)       =         0.006076	       0.348141
	 D(9,6,5,10)      =         0.002146	       0.122960
	 D(10,5,4,11)     =         0.000822	       0.047079
	 D(11,4,3,12)     =         0.000188	       0.010787
	 D(13,1,16,15)    =        -0.007818	      -0.447959
	 D(13,1,16,17)    =         2.418804	     138.587269
	 D(13,1,16,18)    =        -1.980514	    -113.475109
	 D(13,1,18,16)    =         1.637910	      93.845334
	 D(13,1,18,19)    =        -2.796192	    -160.209996
	 D(13,1,18,20)    =        -0.260479	     -14.924321
	 D(13,14,15,16)   =        -0.585810	     -33.564419
	 D(13,14,15,21)   =        -2.697333	    -154.545773
	 D(13,14,15,22)   =         1.484529	      85.057233
	 D(14,13,1,16)    =        -0.357787	     -20.499691
	 D(14,13,1,18)    =        -1.475364	     -84.532106
	 D(14,15,16,17)   =        -2.094026	    -119.978865
	 D(14,15,16,18)   =         1.498907	      85.881054
	 D(15,14,13,25)   =         2.710564	     155.303895
	 D(15,14,13,26)   =        -1.476720	     -84.609838
	 D(15,16,1,18)    =         1.972696	     113.027150
	 D(15,16,18,19)   =         2.716889	     155.666282
	 D(15,16,18,20)   =         0.226822	      12.995964
	 D(16,1,13,25)    =        -2.481523	    -142.180802
	 D(16,1,13,26)    =         1.712771	      98.134576
	 D(16,1,18,19)    =         1.849083	     105.944670
	 D(16,1,18,20)    =        -1.898389	    -108.769655
	 D(16,15,14,23)   =         1.456370	      83.443861
	 D(16,15,14,24)   =        -2.719634	    -155.823559
	 D(17,16,1,18)    =        -1.883867	    -107.937621
	 D(17,16,15,21)   =         0.012535	       0.718199
	 D(17,16,15,22)   =         2.108373	     120.800860
	 D(17,16,18,19)   =         0.036634	       2.098955
	 D(17,16,18,20)   =        -2.453433	    -140.571363
	 D(18,1,13,25)    =         2.684086	     153.786782
	 D(18,1,13,26)    =         0.595195	      34.102160
	 D(18,16,15,21)   =        -2.677717	    -153.421882
	 D(18,16,15,22)   =        -0.581879	     -33.339221
	 D(21,15,14,23)   =        -0.655153	     -37.537493
	 D(21,15,14,24)   =         1.452028	      83.195087
	 D(22,15,14,23)   =        -2.756477	    -157.934488
	 D(22,15,14,24)   =        -0.649296	     -37.201907
	 D(23,14,13,25)   =         0.668291	      38.290272
	 D(23,14,13,26)   =         2.764192	     158.376539
	 D(24,14,13,25)   =        -1.439029	     -82.450304
	 D(24,14,13,26)   =         0.656871	      37.635963
	 R(3,14)          =         7.127203	       3.771553

	Current energy   :      -464.2811709576

	Generating empirical Hessian (Schlegel '84) for each fragment.
	Taking RFO optimization step.
	Going to follow RFO solution 1.
	Using RFO vector 1.
	Norm of target step-size    0.32294
	Projected energy change by RFO approximation:        -0.0513598168

	Back-transformation to cartesian coordinates...
	Successfully converged to displaced geometry.

	--- Internal Coordinate Step in ANG or DEG, aJ/ANG or AJ/DEG ---
	 ---------------------------------------------------------------------------
	   Coordinate                Previous        Force       Change         New 
	   ----------                --------       ------       ------       ------
	    1 R(1,2)          =      1.485966     0.096626     0.020518     1.506484
	    2 R(1,13)         =      1.522769     0.059250     0.013357     1.536126
	    3 R(1,16)         =      1.522080     0.043763     0.008355     1.530435
	    4 R(1,18)         =      1.513014     0.024189     0.002789     1.515803
	    5 R(2,3)          =      1.344394     0.587107     0.062297     1.406690
	    6 R(2,7)          =      1.344295     0.596746     0.062248     1.406543
	    7 R(3,4)          =      1.342072     0.592961     0.061049     1.403121
	    8 R(3,12)         =      1.103310    -0.034518    -0.005700     1.097610
	    9 R(4,5)          =      1.341670     0.612696     0.062795     1.404465
	   10 R(4,11)         =      1.103926    -0.042058    -0.006957     1.096969
	   11 R(5,6)          =      1.341711     0.598560     0.061412     1.403123
	   12 R(5,10)         =      1.103869    -0.042500    -0.007029     1.096840
	   13 R(6,7)          =      1.342247     0.606993     0.062658     1.404906
	   14 R(6,9)          =      1.103941    -0.041715    -0.006900     1.097041
	   15 R(7,8)          =      1.103193    -0.038711    -0.006390     1.096803
	   16 R(13,14)        =      1.538028     0.023885     0.006642     1.544670
	   17 R(13,25)        =      1.115184    -0.065968    -0.011258     1.103927
	   18 R(13,26)        =      1.115330    -0.043135    -0.007364     1.107966
	   19 R(14,15)        =      1.538373     0.042641     0.007379     1.545752
	   20 R(14,23)        =      1.116514    -0.055187    -0.009452     1.107062
	   21 R(14,24)        =      1.115905    -0.057565    -0.009843     1.106062
	   22 R(15,16)        =      1.522031     0.063762     0.013051     1.535082
	   23 R(15,21)        =      1.115601    -0.063903    -0.010918     1.104683
	   24 R(15,22)        =      1.115470    -0.045044    -0.007693     1.107777
	   25 R(16,17)        =      1.088850     0.033832     0.005362     1.094212
	   26 R(16,18)        =      1.505927     0.027576     0.006589     1.512515
	   27 R(18,19)        =      1.086978     0.044266     0.006978     1.093956
	   28 R(18,20)        =      1.086634     0.059513     0.009372     1.096006
	   29 B(1,2,3)        =    120.160299    -0.000789    -0.940025   119.220274
	   30 B(1,2,7)        =    120.950530     0.000740     1.201567   122.152097
	   31 B(1,13,14)      =    104.948207    -0.000148    -0.209317   104.738890
	   32 B(1,13,25)      =    112.227590    -0.000131    -0.702371   111.525220
	   33 B(1,13,26)      =    109.532970     0.000238     0.961849   110.494819
	   34 B(1,16,15)      =    107.377697     0.000098     0.493981   107.871677
	   35 B(1,16,17)      =    121.678750    -0.000154    -1.014920   120.663830
	   36 B(1,16,18)      =     59.953961    -0.000043    -0.203898    59.750063
	   37 B(1,18,16)      =     60.552892     0.000066     0.159416    60.712308
	   38 B(1,18,19)      =    118.803448    -0.000126    -0.759987   118.043462
	   39 B(1,18,20)      =    117.823531     0.000036     0.296354   118.119885
	   40 B(2,1,13)       =    119.507362    -0.000340    -0.675400   118.831962
	   41 B(2,1,16)       =    116.730761     0.000295     1.458336   118.189097
	   42 B(2,1,18)       =    119.070878     0.000351     1.066379   120.137258
	   43 B(2,3,4)        =    120.704322    -0.000004     0.135718   120.840040
	   44 B(2,3,12)       =    119.981496    -0.000097    -0.432034   119.549462
	   45 B(2,7,6)        =    120.636109    -0.000006     0.163374   120.799483
	   46 B(2,7,8)        =    120.211078    -0.000149    -0.633612   119.577466
	   47 B(3,2,7)        =    118.887127     0.000048    -0.266614   118.620513
	   48 B(3,4,5)        =    119.991675     0.000035     0.117016   120.108692
	   49 B(3,4,11)       =    120.036307    -0.000041    -0.124412   119.911895
	   50 B(4,3,12)       =    119.314054     0.000101     0.295815   119.609868
	   51 B(4,5,6)        =    119.726715    -0.000060    -0.198026   119.528689
	   52 B(4,5,10)       =    120.136139     0.000029     0.088613   120.224752
	   53 B(5,4,11)       =    119.972004     0.000006     0.007297   119.979302
	   54 B(5,6,7)        =    120.052591    -0.000013     0.047558   120.100149
	   55 B(5,6,9)        =    119.930676     0.000023     0.022338   119.953013
	   56 B(6,5,10)       =    120.136833     0.000031     0.109583   120.246416
	   57 B(6,7,8)        =    119.151569     0.000155     0.470768   119.622337
	   58 B(7,6,9)        =    120.016412    -0.000010    -0.069855   119.946557
	   59 B(13,1,16)      =    107.028148    -0.000018    -0.371221   106.656927
	   60 B(13,1,18)      =    118.477850    -0.000048    -0.771446   117.706404
	   61 B(13,14,15)     =    103.902375     0.000265     0.494982   104.397358
	   62 B(13,14,23)     =    109.564068    -0.000058    -0.191227   109.372841
	   63 B(13,14,24)     =    112.678735    -0.000070     0.125589   112.804323
	   64 B(14,13,25)     =    111.847282     0.000154     0.552374   112.399657
	   65 B(14,13,26)     =    110.494038    -0.000016    -0.141824   110.352213
	   66 B(14,15,16)     =    104.670098    -0.000264    -0.631178   104.038919
	   67 B(14,15,21)     =    111.374556     0.000167     0.620345   111.994901
	   68 B(14,15,22)     =    110.913764    -0.000014    -0.289321   110.624443
	   69 B(15,14,23)     =    109.571731    -0.000050    -0.147035   109.424696
	   70 B(15,14,24)     =    112.658582    -0.000063     0.171272   112.829854
	   71 B(15,16,17)     =    117.156776     0.000064     0.682187   117.838964
	   72 B(15,16,18)     =    118.209116     0.000030    -0.019269   118.189848
	   73 B(16,1,18)      =     59.493147    -0.000023     0.044482    59.537629
	   74 B(16,15,21)     =    111.803495    -0.000000    -0.017989   111.785506
	   75 B(16,15,22)     =    110.027783     0.000258     0.984904   111.012687
	   76 B(16,18,19)     =    116.518588     0.000044     0.521641   117.040229
	   77 B(16,18,20)     =    118.506957    -0.000079    -0.437696   118.069262
	   78 B(17,16,18)     =    119.328625    -0.000061    -0.494236   118.834389
	   79 B(19,18,20)     =    114.339595     0.000051     0.175271   114.514866
	   80 B(21,15,22)     =    108.061852    -0.000140    -0.628002   107.433850
	   81 B(23,14,24)     =    108.378423    -0.000019    -0.439863   107.938560
	   82 B(25,13,26)     =    107.791982    -0.000090    -0.422872   107.369110
	   83 D(1,2,3,4)      =    179.909589    -0.000010    -0.361173   179.548416
	   84 D(1,2,3,12)     =     -0.221554    -0.000014    -0.519892    -0.741446
	   85 D(1,2,7,6)      =   -179.899175     0.000010     0.309956  -179.589219
	   86 D(1,2,7,8)      =     -0.308370     0.000012     0.410626     0.102256
	   87 D(1,13,14,15)   =     33.374548     0.000035     0.589035    33.963583
	   88 D(1,13,14,23)   =    -83.639076     0.000023     0.587762   -83.051314
	   89 D(1,13,14,24)   =    155.620349     0.000048     1.195528   156.815877
	   90 D(1,16,15,14)   =     21.189108    -0.000007    -0.263710    20.925398
	   91 D(1,16,15,21)   =    141.886172     0.000002     0.082630   141.968802
	   92 D(1,16,15,22)   =    -98.031167     0.000001    -0.055862   -98.087029
	   93 D(1,16,18,19)   =   -109.672055     0.000034     1.074657  -108.597397
	   94 D(1,16,18,20)   =    107.657628     0.000024     0.602211   108.259839
	   95 D(1,18,16,15)   =    -94.661664    -0.000020    -0.530873   -95.192537
	   96 D(1,18,16,17)   =    111.771010    -0.000041    -1.107133   110.663877
	   97 D(2,1,13,14)    =    115.050369     0.000008     0.672222   115.722592
	   98 D(2,1,13,25)    =     -6.630742     0.000003     0.527975    -6.102767
	   99 D(2,1,13,26)    =   -126.315365     0.000012     0.870768  -125.444597
	  100 D(2,1,16,15)    =   -137.418108     0.000061     0.377914  -137.040194
	  101 D(2,1,16,17)    =      1.617120     0.000073     0.948431     2.565551
	  102 D(2,1,16,18)    =    109.554741     0.000065     0.665783   110.220525
	  103 D(2,1,18,16)    =   -105.650253    -0.000045    -1.341572  -106.991825
	  104 D(2,1,18,19)    =      0.294417    -0.000014    -0.320077    -0.025660
	  105 D(2,1,18,20)    =    145.580092    -0.000025    -0.749652   144.830440
	  106 D(2,3,4,5)      =     -0.161589     0.000001     0.043151    -0.118438
	  107 D(2,3,4,11)     =    179.880511    -0.000003    -0.120244   179.760267
	  108 D(2,7,6,5)      =      0.149602     0.000003     0.109507     0.259109
	  109 D(2,7,6,9)      =    179.943236     0.000003     0.123081   180.066317
	  110 D(3,2,1,13)     =    -66.027913     0.000012    -0.071877   -66.099790
	  111 D(3,2,1,16)     =     65.407068    -0.000005     0.272364    65.679431
	  112 D(3,2,1,18)     =    133.670791     0.000042     1.279316   134.950107
	  113 D(3,2,7,6)      =     -0.418518    -0.000005    -0.149273    -0.567791
	  114 D(3,2,7,8)      =    179.172287    -0.000002    -0.048603   179.123684
	  115 D(3,4,5,6)      =     -0.114053    -0.000002    -0.085824    -0.199878
	  116 D(3,4,5,10)     =   -179.910849    -0.000004    -0.151868  -180.062717
	  117 D(4,3,2,7)      =      0.424721     0.000003     0.072987     0.497708
	  118 D(4,5,6,7)      =      0.119979     0.000000     0.010277     0.130256
	  119 D(4,5,6,9)      =   -179.673834     0.000000    -0.003106  -179.676939
	  120 D(5,4,3,12)     =    179.968688     0.000005     0.202910   180.171598
	  121 D(5,6,7,8)      =   -179.445494     0.000001     0.013265  -179.432229
	  122 D(6,5,4,11)     =    179.843874     0.000002     0.077625   179.921500
	  123 D(7,2,1,13)     =    113.446166    -0.000002    -0.530204   112.915962
	  124 D(7,2,1,16)     =   -115.118853    -0.000019    -0.185964  -115.304817
	  125 D(7,2,1,18)     =    -46.855130     0.000028     0.820988   -46.034141
	  126 D(7,2,3,12)     =   -179.706422    -0.000001    -0.085732  -179.792155
	  127 D(7,6,5,10)     =    179.916773     0.000002     0.076292   179.993065
	  128 D(8,7,6,9)      =      0.348141     0.000001     0.026839     0.374979
	  129 D(9,6,5,10)     =      0.122960     0.000002     0.062909     0.185870
	  130 D(10,5,4,11)    =      0.047079     0.000000     0.011582     0.058661
	  131 D(11,4,3,12)    =      0.010787     0.000001     0.039516     0.050303
	  132 D(13,1,16,15)   =     -0.447959     0.000007     0.416239    -0.031719
	  133 D(13,1,16,17)   =    138.587269     0.000019     0.986757   139.574026
	  134 D(13,1,16,18)   =   -113.475109     0.000011     0.704109  -112.771000
	  135 D(13,1,18,16)   =     93.845334    -0.000002    -0.018813    93.826521
	  136 D(13,1,18,19)   =   -160.209996     0.000029     1.002682  -159.207314
	  137 D(13,1,18,20)   =    -14.924321     0.000018     0.573107   -14.351214
	  138 D(13,14,15,16)  =    -33.564419    -0.000022    -0.149364   -33.713783
	  139 D(13,14,15,21)  =   -154.545773    -0.000005    -0.071243  -154.617016
	  140 D(13,14,15,22)  =     85.057233     0.000012     0.506152    85.563384
	  141 D(14,13,1,16)   =    -20.499691    -0.000013    -0.458782   -20.958473
	  142 D(14,13,1,18)   =    -84.532106    -0.000004    -0.285064   -84.817170
	  143 D(14,15,16,17)  =   -119.978865     0.000006    -0.016875  -119.995740
	  144 D(14,15,16,18)  =     85.881054    -0.000008    -0.279044    85.602009
	  145 D(15,14,13,25)  =    155.303895    -0.000003    -0.089541   155.214354
	  146 D(15,14,13,26)  =    -84.609838    -0.000008    -0.355660   -84.965498
	  147 D(15,16,1,18)   =    113.027150    -0.000004    -0.287869   112.739281
	  148 D(15,16,18,19)  =    155.666282     0.000014     0.543784   156.210066
	  149 D(15,16,18,20)  =     12.995964     0.000004     0.071338    13.067302
	  150 D(16,1,13,25)   =   -142.180802    -0.000017    -0.603029  -142.783831
	  151 D(16,1,13,26)   =     98.134576    -0.000008    -0.260237    97.874339
	  152 D(16,1,18,19)   =    105.944670     0.000031     1.021495   106.966165
	  153 D(16,1,18,20)   =   -108.769655     0.000020     0.591920  -108.177735
	  154 D(16,15,14,23)  =     83.443861    -0.000011    -0.178589    83.265271
	  155 D(16,15,14,24)  =   -155.823559    -0.000034    -0.725880  -156.549439
	  156 D(17,16,1,18)   =   -107.937621     0.000008     0.282648  -107.654974
	  157 D(17,16,15,21)  =      0.718199     0.000014     0.329465     1.047664
	  158 D(17,16,15,22)  =    120.800860     0.000014     0.190973   120.991833
	  159 D(17,16,18,19)  =      2.098955    -0.000007    -0.032475     2.066480
	  160 D(17,16,18,20)  =   -140.571363    -0.000017    -0.504921  -141.076284
	  161 D(18,1,13,25)   =    153.786782    -0.000008    -0.429311   153.357471
	  162 D(18,1,13,26)   =     34.102160     0.000000    -0.086518    34.015642
	  163 D(18,16,15,21)  =   -153.421882     0.000001     0.067295  -153.354586
	  164 D(18,16,15,22)  =    -33.339221     0.000000    -0.071197   -33.410417
	  165 D(21,15,14,23)  =    -37.537493     0.000006    -0.100468   -37.637961
	  166 D(21,15,14,24)  =     83.195087    -0.000017    -0.647758    82.547328
	  167 D(22,15,14,23)  =   -157.934488     0.000023     0.476927  -157.457561
	  168 D(22,15,14,24)  =    -37.201907    -0.000000    -0.070364   -37.272271
	  169 D(23,14,13,25)  =     38.290272    -0.000015    -0.090814    38.199458
	  170 D(23,14,13,26)  =    158.376539    -0.000020    -0.356933   158.019606
	  171 D(24,14,13,25)  =    -82.450304     0.000010     0.516953   -81.933351
	  172 D(24,14,13,26)  =     37.635963     0.000005     0.250834    37.886797
	  173 R(3,14)         =      3.771553     0.059944     0.029904     3.801457
	 ---------------------------------------------------------------------------
	Successfully symmetrized geometry.

  ==> Convergence Check <==

  Measures of convergence in internal coordinates in au.
  Criteria marked as inactive (o), active & met (*), and active & unmet ( ).
  --------------------------------------------------------------------------------------------- ~
   Step     Total Energy     Delta E     MAX Force     RMS Force      MAX Disp      RMS Disp    ~
  --------------------------------------------------------------------------------------------- ~
    Convergence Criteria    1.00e-06 *    3.00e-04 *             o    1.20e-03 *             o  ~
  --------------------------------------------------------------------------------------------- ~
      1    -464.28117096   -4.64e+02      7.44e-02      1.38e-02 o    1.19e-01      2.46e-02 o  ~
  ---------------------------------------------------------------------------------------------

	Writing optimization data to binary file.
	Structure for next step:
	Cartesian Geometry (in Angstrom)
	    C     0.6957035364   0.5505365656  -0.4379385461
	    C    -0.6547419620   0.0461424933  -0.0004723606
	    C    -0.7314563494  -0.8956472260   1.0416048755
	    C    -1.9718806422  -1.3811909388   1.4824497355
	    C    -3.1589909632  -0.9267675098   0.8851306970
	    C    -3.0944919917   0.0175740316  -0.1506356309
	    C    -1.8495934404   0.5011194628  -0.5867215210
	    H    -1.8087732259   1.2461635511  -1.3905992220
	    H    -4.0176874179   0.3812776911  -0.6185331385
	    H    -4.1296236680  -1.3058154947   1.2275536053
	    H    -2.0137699042  -2.1184153977   2.2936749549
	    H     0.1913198042  -1.2585049882   1.5123140938
	    C     1.5234836248   1.3962417106   0.5414731759
	    C     2.7799145907   0.5454671566   0.8305575434
	    C     3.0591667092  -0.1917394217  -0.4990646405
	    C     1.6631236170  -0.4425274016  -1.0861300813
	    H     1.3623395323  -1.4794332849  -1.2640515645
	    C     1.0284085740   0.6532763972  -1.9132048504
	    H     0.2636877747   0.3519261077  -2.6350988242
	    H     1.6630294747   1.4837671272  -2.2430085394
	    H     3.6128915211  -1.1344730334  -0.3410547905
	    H     3.6668829195   0.4407065607  -1.1757206204
	    H     2.5483517621  -0.1948612184   1.6204170016
	    H     3.6388324848   1.1521157067   1.1735007585
	    H     0.9532521209   1.6291659400   1.4575716980
	    H     1.8095214696   2.3600867156   0.0758828490
			--------------------------
			 OPTKING Finished Execution 
			--------------------------

    Structure for next step:
    Molecular point group: c1
    Full point group: C1

    Geometry (in Angstrom), charge = 0, multiplicity = 1:

    C            0.700354959424     0.550310853240    -0.444105319836
    C           -0.650090544245     0.045916778954    -0.006639132641
    C           -0.726804931954    -0.895872944023     1.035438107619
    C           -1.967229229635    -1.381416658727     1.476282969283
    C           -3.154339555271    -0.926993227988     0.878963928434
    C           -3.089840583564     0.017348317158    -0.156802403534
    C           -1.844942027394     0.500893750278    -0.592888295283
    H           -1.804121812669     1.245937841520    -1.396765999486
    H           -4.013036013358     0.381051978050    -0.624699912968
    H           -4.124972263879    -1.306041214350     1.221386838133
    H           -2.009118491762    -2.118641120548     2.287508191903
    H            0.195971225268    -1.258730707606     1.506147327737
    C            1.528135051111     1.396016001560     0.535306405997
    C            2.784566021948     0.545241444223     0.824390774693
    C            3.063818141555    -0.191965136979    -0.505231414488
    C            1.667775043826    -0.442753117830    -1.092296857612
    H            1.366990957930    -1.479659005210    -1.270218341507
    C            1.033059998333     0.653050685287    -1.919371629914
    H            0.268339196074     0.351700394564    -2.641265606543
    H            1.667680901583     1.483541418516    -2.249175320211
    H            3.617542955611    -1.134698752327    -0.347221563801
    H            3.671534354224     0.440480847961    -1.181887397072
    H            2.553003192472    -0.195086933625     1.614250235944
    H            3.643483919475     1.151889996709     1.167333991110
    H            0.957903544927     1.628940231858     1.451404931744
    H            1.814172896992     2.359861010358     0.069716077334


Scratch directory: /scratch1/maxbuskirk/
gradient() will perform analytic gradient computation.

*** tstart() called on skylm001.palmetto.clemson.edu
*** at Fri Jan 28 21:06:09 2022

   => Loading Basis Set <=

    Name: CC-PVDZ
    Role: ORBITAL
    Keyword: BASIS
    atoms 1-7, 13-16, 18  entry C          line   138 file /home/maxbuskirk/.conda/envs/psifour/share/psi4/basis/cc-pvdz.gbs 
    atoms 8-12, 17, 19-26 entry H          line    22 file /home/maxbuskirk/.conda/envs/psifour/share/psi4/basis/cc-pvdz.gbs 


         ---------------------------------------------------------
                                   SCF
               by Justin Turney, Rob Parrish, Andy Simmonett
                          and Daniel G. A. Smith
                              RHF Reference
                        1 Threads,  59127 MiB Core
         ---------------------------------------------------------

  ==> Geometry <==

    Molecular point group: c1
    Full point group: C1

    Geometry (in Angstrom), charge = 0, multiplicity = 1:

       Center              X                  Y                   Z               Mass       
    ------------   -----------------  -----------------  -----------------  -----------------
         C            0.700354959424     0.550310853240    -0.444105319836    12.000000000000
         C           -0.650090544245     0.045916778954    -0.006639132641    12.000000000000
         C           -0.726804931954    -0.895872944023     1.035438107619    12.000000000000
         C           -1.967229229635    -1.381416658727     1.476282969283    12.000000000000
         C           -3.154339555271    -0.926993227988     0.878963928434    12.000000000000
         C           -3.089840583564     0.017348317158    -0.156802403534    12.000000000000
         C           -1.844942027394     0.500893750278    -0.592888295283    12.000000000000
         H           -1.804121812669     1.245937841520    -1.396765999486     1.007825032230
         H           -4.013036013358     0.381051978050    -0.624699912968     1.007825032230
         H           -4.124972263879    -1.306041214350     1.221386838133     1.007825032230
         H           -2.009118491762    -2.118641120548     2.287508191903     1.007825032230
         H            0.195971225268    -1.258730707606     1.506147327737     1.007825032230
         C            1.528135051111     1.396016001560     0.535306405997    12.000000000000
         C            2.784566021948     0.545241444223     0.824390774693    12.000000000000
         C            3.063818141555    -0.191965136979    -0.505231414488    12.000000000000
         C            1.667775043826    -0.442753117830    -1.092296857612    12.000000000000
         H            1.366990957930    -1.479659005210    -1.270218341507     1.007825032230
         C            1.033059998333     0.653050685287    -1.919371629914    12.000000000000
         H            0.268339196074     0.351700394564    -2.641265606543     1.007825032230
         H            1.667680901583     1.483541418516    -2.249175320211     1.007825032230
         H            3.617542955611    -1.134698752327    -0.347221563801     1.007825032230
         H            3.671534354224     0.440480847961    -1.181887397072     1.007825032230
         H            2.553003192472    -0.195086933625     1.614250235944     1.007825032230
         H            3.643483919475     1.151889996709     1.167333991110     1.007825032230
         H            0.957903544927     1.628940231858     1.451404931744     1.007825032230
         H            1.814172896992     2.359861010358     0.069716077334     1.007825032230

  Running in c1 symmetry.

  Rotational constants: A =      0.07305  B =      0.02044  C =      0.01841 [cm^-1]
  Rotational constants: A =   2190.05440  B =    612.65097  C =    551.81699 [MHz]
  Nuclear repulsion =  666.387362787635539

  Charge       = 0
  Multiplicity = 1
  Electrons    = 86
  Nalpha       = 43
  Nbeta        = 43

  ==> Algorithm <==

  SCF Algorithm Type is DF.
  DIIS enabled.
  MOM disabled.
  Fractional occupation disabled.
  Guess Type is READ.
  Energy threshold   = 1.00e-10
  Density threshold  = 1.00e-10
  Integral threshold = 1.00e-12

  ==> Primary Basis <==

  Basis Set: CC-PVDZ
    Blend: CC-PVDZ
    Number of shells: 114
    Number of basis functions: 238
    Number of Cartesian functions: 250
    Spherical Harmonics?: true
    Max angular momentum: 2

   => Loading Basis Set <=

    Name: (CC-PVDZ AUX)
    Role: JKFIT
    Keyword: DF_BASIS_SCF
    atoms 1-7, 13-16, 18  entry C          line   121 file /home/maxbuskirk/.conda/envs/psifour/share/psi4/basis/cc-pvdz-jkfit.gbs 
    atoms 8-12, 17, 19-26 entry H          line    51 file /home/maxbuskirk/.conda/envs/psifour/share/psi4/basis/cc-pvdz-jkfit.gbs 

   => Loading Basis Set <=

    Name: CC-PVDZ
    Role: ORBITAL
    Keyword: BASIS
    atoms 1-7, 13-16, 18  entry C          line   138 file /home/maxbuskirk/.conda/envs/psifour/share/psi4/basis/cc-pvdz.gbs 
    atoms 8-12, 17, 19-26 entry H          line    22 file /home/maxbuskirk/.conda/envs/psifour/share/psi4/basis/cc-pvdz.gbs 

  Reading orbitals from file /scratch1/maxbuskirk/rH-t2.mol.448834.180.npy, no projection.

  ==> Integral Setup <==

  DFHelper Memory: AOs need 0.470 GiB; user supplied 43.306 GiB. Using in-core AOs.

  ==> MemDFJK: Density-Fitted J/K Matrices <==

    J tasked:                   Yes
    K tasked:                   Yes
    wK tasked:                   No
    OpenMP threads:               1
    Memory [MiB]:             44345
    Algorithm:                 Core
    Schwarz Cutoff:           1E-12
    Mask sparsity (%):       8.0962
    Fitting Condition:        1E-10

   => Auxiliary Basis Set <=

  Basis Set: (CC-PVDZ AUX)
    Blend: CC-PVDZ-JKFIT
    Number of shells: 414
    Number of basis functions: 1162
    Number of Cartesian functions: 1322
    Spherical Harmonics?: true
    Max angular momentum: 3

  Minimum eigenvalue in the overlap matrix is 3.2588501721E-04.
  Reciprocal condition number of the overlap matrix is 4.7168749222E-05.
    Using symmetric orthogonalization.

  ==> Pre-Iterations <==

  SCF Guess: Orbitals guess was supplied from a previous computation.

   -------------------------------------------------------
    Irrep   Nso     Nmo     Nalpha   Nbeta   Ndocc  Nsocc
   -------------------------------------------------------
     A        238     238      43      43      43       0
   -------------------------------------------------------
    Total     238     238      43      43      43       0
   -------------------------------------------------------

  ==> Iterations <==

                           Total Energy        Delta E     RMS |[F,P]|

   @DF-RHF iter   0:  -462.37616230496064   -4.62376e+02   1.55450e-03 
   @DF-RHF iter   1:  -462.56802152136606   -1.91859e-01   2.83849e-04 DIIS
   @DF-RHF iter   2:  -462.57029275843524   -2.27124e-03   1.41051e-04 DIIS
   @DF-RHF iter   3:  -462.57087685614783   -5.84098e-04   1.97200e-05 DIIS
   @DF-RHF iter   4:  -462.57090345205285   -2.65959e-05   8.35486e-06 DIIS
   @DF-RHF iter   5:  -462.57090679285648   -3.34080e-06   2.59253e-06 DIIS
   @DF-RHF iter   6:  -462.57090735515260   -5.62296e-07   9.41544e-07 DIIS
   @DF-RHF iter   7:  -462.57090740707105   -5.19184e-08   3.41406e-07 DIIS
   @DF-RHF iter   8:  -462.57090741404073   -6.96969e-09   7.71602e-08 DIIS
   @DF-RHF iter   9:  -462.57090741458984   -5.49107e-10   3.11667e-08 DIIS
   @DF-RHF iter  10:  -462.57090741468801   -9.81686e-11   1.33536e-08 DIIS
   @DF-RHF iter  11:  -462.57090741471893   -3.09228e-11   5.74511e-09 DIIS
   @DF-RHF iter  12:  -462.57090741472706   -8.12861e-12   2.78537e-09 DIIS
   @DF-RHF iter  13:  -462.57090741472723   -1.70530e-13   1.04425e-09 DIIS
   @DF-RHF iter  14:  -462.57090741472808   -8.52651e-13   2.82425e-10 DIIS
   @DF-RHF iter  15:  -462.57090741472723    8.52651e-13   9.84338e-11 DIIS
  Energy and wave function converged.


  ==> Post-Iterations <==

    Orbital Energies [Eh]
    ---------------------

    Doubly Occupied:                                                      

       1A    -11.243431     2A    -11.240620     3A    -11.240233  
       4A    -11.238563     5A    -11.237650     6A    -11.236114  
       7A    -11.235911     8A    -11.234067     9A    -11.229403  
      10A    -11.229010    11A    -11.228084    12A    -11.227151  
      13A     -1.180798    14A     -1.134692    15A     -1.034979  
      16A     -1.010442    17A     -1.004648    18A     -0.950400  
      19A     -0.844131    20A     -0.820949    21A     -0.809600  
      22A     -0.770555    23A     -0.735902    24A     -0.694648  
      25A     -0.655753    26A     -0.632043    27A     -0.615942  
      28A     -0.608392    29A     -0.578582    30A     -0.573445  
      31A     -0.562813    32A     -0.562068    33A     -0.518970  
      34A     -0.495848    35A     -0.488118    36A     -0.477425  
      37A     -0.470210    38A     -0.465803    39A     -0.460809  
      40A     -0.409445    41A     -0.385700    42A     -0.329397  
      43A     -0.315667  

    Virtual:                                                              

      44A      0.132651    45A      0.137444    46A      0.177862  
      47A      0.193709    48A      0.200325    49A      0.210129  
      50A      0.229732    51A      0.232631    52A      0.241295  
      53A      0.252768    54A      0.258404    55A      0.261288  
      56A      0.265741    57A      0.282850    58A      0.299846  
      59A      0.304591    60A      0.337822    61A      0.349413  
      62A      0.354089    63A      0.375731    64A      0.393101  
      65A      0.416316    66A      0.422790    67A      0.446908  
      68A      0.464650    69A      0.483969    70A      0.491820  
      71A      0.505677    72A      0.521343    73A      0.565761  
      74A      0.598309    75A      0.627546    76A      0.635513  
      77A      0.659947    78A      0.662950    79A      0.679059  
      80A      0.686873    81A      0.693001    82A      0.709507  
      83A      0.718655    84A      0.722267    85A      0.730281  
      86A      0.733403    87A      0.737429    88A      0.748870  
      89A      0.749494    90A      0.758683    91A      0.789638  
      92A      0.808643    93A      0.816194    94A      0.829219  
      95A      0.837746    96A      0.851916    97A      0.863324  
      98A      0.864817    99A      0.869831   100A      0.876381  
     101A      0.883867   102A      0.890729   103A      0.895793  
     104A      0.899504   105A      0.905090   106A      0.908016  
     107A      0.913983   108A      0.919637   109A      0.929707  
     110A      0.940277   111A      0.950319   112A      0.956929  
     113A      0.971170   114A      0.981182   115A      0.991115  
     116A      1.012216   117A      1.050155   118A      1.107971  
     119A      1.139299   120A      1.145230   121A      1.155163  
     122A      1.157942   123A      1.164005   124A      1.180465  
     125A      1.238008   126A      1.244305   127A      1.247508  
     128A      1.277899   129A      1.286241   130A      1.297075  
     131A      1.303834   132A      1.319779   133A      1.342070  
     134A      1.363793   135A      1.394368   136A      1.417712  
     137A      1.428177   138A      1.457877   139A      1.466457  
     140A      1.475869   141A      1.499608   142A      1.525604  
     143A      1.552621   144A      1.596786   145A      1.615446  
     146A      1.655366   147A      1.680641   148A      1.699436  
     149A      1.728177   150A      1.736535   151A      1.750938  
     152A      1.762251   153A      1.776211   154A      1.787216  
     155A      1.801069   156A      1.824248   157A      1.832475  
     158A      1.851750   159A      1.863979   160A      1.867655  
     161A      1.874776   162A      1.890885   163A      1.896771  
     164A      1.907786   165A      1.916835   166A      1.918163  
     167A      1.930072   168A      1.931474   169A      1.940879  
     170A      1.951777   171A      1.962696   172A      1.968945  
     173A      1.977890   174A      1.985092   175A      1.993463  
     176A      2.001138   177A      2.016632   178A      2.039906  
     179A      2.042431   180A      2.052764   181A      2.056428  
     182A      2.074838   183A      2.085061   184A      2.098739  
     185A      2.119716   186A      2.138325   187A      2.145496  
     188A      2.152972   189A      2.163029   190A      2.177162  
     191A      2.193336   192A      2.218822   193A      2.230076  
     194A      2.253267   195A      2.257957   196A      2.266151  
     197A      2.267866   198A      2.284336   199A      2.292394  
     200A      2.299151   201A      2.317881   202A      2.360876  
     203A      2.377547   204A      2.396422   205A      2.415620  
[...]
	   93 D(1,16,18,19)   =   -107.774337     0.000000     0.003430  -107.770907
	   94 D(1,16,18,20)   =    108.274752    -0.000000    -0.010660   108.264092
	   95 D(1,18,16,15)   =    -96.440163    -0.000000     0.006494   -96.433669
	   96 D(1,18,16,17)   =    110.142335    -0.000000     0.000659   110.142994
	   97 D(2,1,13,14)    =    122.434611    -0.000000    -0.042200   122.392411
	   98 D(2,1,13,25)    =      1.146190    -0.000000    -0.049147     1.097043
	   99 D(2,1,13,26)    =   -117.856280    -0.000000    -0.049381  -117.905661
	  100 D(2,1,16,15)    =   -139.877713     0.000000     0.019332  -139.858381
	  101 D(2,1,16,17)    =      2.363278     0.000000     0.014657     2.377935
	  102 D(2,1,16,18)    =    108.740393     0.000000     0.012077   108.752469
	  103 D(2,1,18,16)    =   -111.971950    -0.000000    -0.007159  -111.979109
	  104 D(2,1,18,19)    =     -4.642864    -0.000000    -0.012588    -4.655452
	  105 D(2,1,18,20)    =    140.102404    -0.000000    -0.017893   140.084511
	  106 D(2,3,4,5)      =     -0.014650     0.000000     0.002189    -0.012462
	  107 D(2,3,4,11)     =    179.690702     0.000000     0.001106   179.691808
	  108 D(2,7,6,5)      =      0.157490    -0.000000    -0.001750     0.155740
	  109 D(2,7,6,9)      =   -179.865587     0.000000     0.001180  -179.864407
	  110 D(3,2,1,13)     =    -73.527832     0.000000    -0.123657   -73.651489
	  111 D(3,2,1,16)     =     63.152370    -0.000000    -0.136264    63.016106
	  112 D(3,2,1,18)     =    134.417880     0.000000    -0.125489   134.292390
	  113 D(3,2,7,6)      =     -0.200660     0.000000     0.004085    -0.196576
	  114 D(3,2,7,8)      =    179.795717     0.000000     0.008848   179.804565
	  115 D(3,4,5,6)      =     -0.031718    -0.000000     0.000231    -0.031488
	  116 D(3,4,5,10)     =    179.793883     0.000000     0.001237   179.795120
	  117 D(4,3,2,7)      =      0.129485    -0.000000    -0.004309     0.125177
	  118 D(4,5,6,7)      =     -0.038885     0.000000    -0.000450    -0.039334
	  119 D(4,5,6,9)      =    179.984246    -0.000000    -0.003386   179.980860
	  120 D(5,4,3,12)     =   -179.444337    -0.000000     0.000197  -179.444140
	  121 D(5,6,7,8)      =   -179.838861    -0.000000    -0.006546  -179.845408
	  122 D(6,5,4,11)     =   -179.736564     0.000000     0.001315  -179.735249
	  123 D(7,2,1,13)     =    104.292528     0.000000    -0.121089   104.171440
	  124 D(7,2,1,16)     =   -119.027270    -0.000000    -0.133696  -119.160965
	  125 D(7,2,1,18)     =    -47.761760     0.000000    -0.122921   -47.884681
	  126 D(7,2,3,12)     =    179.563105     0.000000    -0.002330   179.560775
	  127 D(7,6,5,10)     =   -179.864424    -0.000000    -0.001454  -179.865878
	  128 D(8,7,6,9)      =      0.138062    -0.000000    -0.003617     0.134445
	  129 D(9,6,5,10)     =      0.158707    -0.000000    -0.004391     0.154316
	  130 D(10,5,4,11)    =      0.089037     0.000000     0.002322     0.091359
	  131 D(11,4,3,12)    =      0.261016    -0.000000    -0.000885     0.260130
	  132 D(13,1,16,15)   =      1.165515     0.000000     0.009025     1.174540
	  133 D(13,1,16,17)   =    143.406505    -0.000000     0.004351   143.410855
	  134 D(13,1,16,18)   =   -110.216380     0.000000     0.001770  -110.214611
	  135 D(13,1,18,16)   =     95.145788    -0.000000    -0.009157    95.136631
	  136 D(13,1,18,19)   =   -157.525126    -0.000000    -0.014586  -157.539711
	  137 D(13,1,18,20)   =    -12.779857    -0.000000    -0.019891   -12.799748
	  138 D(13,14,15,16)  =    -30.797561    -0.000000    -0.049554   -30.847116
	  139 D(13,14,15,21)  =   -151.754737    -0.000000    -0.058093  -151.812831
	  140 D(13,14,15,22)  =     88.683899    -0.000000    -0.060788    88.623111
	  141 D(14,13,1,16)   =    -20.253055    -0.000000    -0.038970   -20.292024
	  142 D(14,13,1,18)   =    -84.228933     0.000000    -0.035363   -84.264297
	  143 D(14,15,16,17)  =   -124.023426    -0.000000     0.028684  -123.994742
	  144 D(14,15,16,18)  =     83.113011    -0.000000     0.022912    83.135923
	  145 D(15,14,13,25)  =    152.365733     0.000000     0.060204   152.425937
	  146 D(15,14,13,26)  =    -87.712116     0.000000     0.065950   -87.646166
	  147 D(15,16,1,18)   =    111.381895    -0.000000     0.007256   111.389150
	  148 D(15,16,18,19)  =    155.785500     0.000000     0.009924   155.795424
	  149 D(15,16,18,20)  =     11.834588    -0.000000    -0.004166    11.830422
	  150 D(16,1,13,25)   =   -141.541476    -0.000000    -0.045916  -141.587392
	  151 D(16,1,13,26)   =     99.456054     0.000000    -0.046150    99.409904
	  152 D(16,1,18,19)   =    107.329086     0.000000    -0.005429   107.323657
	  153 D(16,1,18,20)   =   -107.925646     0.000000    -0.010734  -107.936379
	  154 D(16,15,14,23)  =     85.510774     0.000000    -0.059099    85.451675
	  155 D(16,15,14,24)  =   -155.053299    -0.000000    -0.053082  -155.106382
	  156 D(17,16,1,18)   =   -106.377115    -0.000000     0.002581  -106.374534
	  157 D(17,16,15,21)  =     -2.928881     0.000000     0.039342    -2.889539
	  158 D(17,16,15,22)  =    116.430781     0.000000     0.038437   116.469219
	  159 D(17,16,18,19)  =      2.367998     0.000000     0.004090     2.372088
	  160 D(17,16,18,20)  =   -141.582913    -0.000000    -0.010001  -141.592914
	  161 D(18,1,13,25)   =    154.482645    -0.000000    -0.042309   154.440336
	  162 D(18,1,13,26)   =     35.480176     0.000000    -0.042544    35.437632
	  163 D(18,16,15,21)  =   -155.792444    -0.000000     0.033570  -155.758874
	  164 D(18,16,15,22)  =    -36.432781    -0.000000     0.032665   -36.400116
	  165 D(21,15,14,23)  =    -35.446402    -0.000000    -0.067638   -35.514040
	  166 D(21,15,14,24)  =     83.989525    -0.000000    -0.061621    83.927903
	  167 D(22,15,14,23)  =   -155.007766    -0.000000    -0.070332  -155.078099
	  168 D(22,15,14,24)  =    -35.571839    -0.000000    -0.064316   -35.636155
	  169 D(23,14,13,25)  =     36.018511     0.000000     0.068682    36.087193
	  170 D(23,14,13,26)  =    155.940663     0.000000     0.074428   156.015091
	  171 D(24,14,13,25)  =    -83.323420     0.000000     0.064373   -83.259047
	  172 D(24,14,13,26)  =     36.598732     0.000000     0.070119    36.668850
	  173 R(3,14)         =      3.966082    -0.000044    -0.000042     3.966041
	 ---------------------------------------------------------------------------
	Successfully symmetrized geometry.

  ==> Convergence Check <==

  Measures of convergence in internal coordinates in au.
  Criteria marked as inactive (o), active & met (*), and active & unmet ( ).
  ---------------------------------------------------------------------------------------------
   Step     Total Energy     Delta E     MAX Force     RMS Force      MAX Disp      RMS Disp   
  ---------------------------------------------------------------------------------------------
    Convergence Criteria    1.00e-06 *    3.00e-04 *             o    1.20e-03 *             o
  ---------------------------------------------------------------------------------------------
     10    -464.30941388   -8.29e-07 *    2.97e-05 *    6.89e-06 o    2.38e-03      5.94e-04 o  ~
  ---------------------------------------------------------------------------------------------


  **** Optimization is complete! (in 10 steps) ****

  ==> Optimization Summary <==

  Measures of convergence in internal coordinates in au.
  --------------------------------------------------------------------------------------------------------------- ~
   Step         Total Energy             Delta E       MAX Force       RMS Force        MAX Disp        RMS Disp  ~
  --------------------------------------------------------------------------------------------------------------- ~
      1    -464.281170957589   -464.281170957589      0.07436787      0.01383039      0.11866572      0.02455568  ~
      2    -464.308386881053     -0.027215923464      0.00269580      0.00068279      0.12989940      0.01904031  ~
      3    -464.309195646644     -0.000808765592      0.00099744      0.00028107      0.06802843      0.00950356  ~
      4    -464.309350745643     -0.000155098999      0.00029626      0.00009736      0.03697088      0.00831894  ~
      5    -464.309390240882     -0.000039495238      0.00022026      0.00004696      0.02139948      0.00541910  ~
      6    -464.309401469969     -0.000011229087      0.00011850      0.00002874      0.01538500      0.00380241  ~
      7    -464.309406253353     -0.000004783385      0.00008869      0.00002212      0.01847246      0.00355609  ~
      8    -464.309409956625     -0.000003703272      0.00010921      0.00002039      0.02343684      0.00436265  ~
      9    -464.309413053187     -0.000003096562      0.00007835      0.00001578      0.01076515      0.00219201  ~
     10    -464.309413882018     -0.000000828831      0.00002971      0.00000689      0.00237825      0.00059398  ~
  --------------------------------------------------------------------------------------------------------------- ~

	Writing optimization data to binary file.
	Final energy is   -464.3094138820179
	Final (previous) structure:
	Cartesian Geometry (in Angstrom)
	    C     0.7324898813   0.4133411570  -0.4372797193
	    C    -0.6512825077   0.0252478100   0.0019971698
	    C    -0.8275709256  -0.9326720218   1.0215810772
	    C    -2.1113867110  -1.2753319030   1.4717742022
	    C    -3.2430290916  -0.6622558614   0.9068200729
	    C    -3.0791006446   0.2933463583  -0.1080297912
	    C    -1.7910736655   0.6343637871  -0.5546185349
	    H    -1.6663376272   1.3824311051  -1.3449450671
	    H    -3.9554494921   0.7756626413  -0.5538364248
	    H    -4.2459154353  -0.9307149142   1.2543771296
	    H    -2.2305870166  -2.0251154255   2.2610608253
	    H     0.0527492100  -1.4188379597   1.4574056227
	    C     1.5810102632   1.3063528915   0.4954325515
	    C     2.8659979878   0.4890663267   0.7646406085
	    C     3.1015891005  -0.3330403672  -0.5249143940
	    C     1.6934380149  -0.5877801702  -1.0774436520
	    H     1.3642920565  -1.6154821467  -1.2629833976
	    C     1.0638242872   0.5120916434  -1.9134251399
	    H     0.2872490232   0.2167423213  -2.6265366637
	    H     1.7059582621   1.3365147055  -2.2456513687
	    H     3.6358694768  -1.2762563682  -0.3196859793
	    H     3.7127326509   0.2357260469  -1.2507283101
	    H     2.6737631249  -0.2089086301   1.6014754149
	    H     3.7300459282   1.1158089306   1.0480191732
	    H     1.0363364118   1.5407624729   1.4251246877
	    H     1.8184538745   2.2679851837   0.0028266247
	Saving final (previous) structure.
	Cleaning optimization helper files.
			--------------------------
			 OPTKING Finished Execution 
			--------------------------

    Final optimized geometry and variables:
    Molecular point group: c1
    Full point group: C1

    Geometry (in Angstrom), charge = 0, multiplicity = 1:

    C            0.732489884140     0.413341158584    -0.437279721066
    C           -0.651282510235     0.025247810097     0.001997169823
    C           -0.827570928852    -0.932672025440     1.021581081172
    C           -2.111386719286    -1.275331908031     1.471774208021
    C           -3.243029104392    -0.662255863987     0.906820076449
    C           -3.079100656729     0.293346359500    -0.108029791634
    C           -1.791073672505     0.634363789567    -0.554618537059
    H           -1.666337633729     1.382431110578    -1.344945072417
    H           -3.955449507691     0.775662644306    -0.553836426934
    H           -4.245915451942    -0.930714917849     1.254377134488
    H           -2.230587025373    -2.025115433507     2.261060834235
    H            0.052749210240    -1.418837965321     1.457405628403
    C            1.581010269422     1.306352896628     0.495432553490
    C            2.865997999094     0.489066328599     0.764640611468
    C            3.101589112644    -0.333040368533    -0.524914396015
    C            1.693438021542    -0.587780172545    -1.077443656273
    H            1.364292061885    -1.615482153097    -1.262983402602
    C            1.063824291404     0.512091645443    -1.913425147419
    H            0.287249024338     0.216742322137    -2.626536674008
    H            1.705958268767     1.336514710768    -2.245651377539
    H            3.635869491141    -1.276256373203    -0.319685980587
    H            3.712732665511     0.235726047868    -1.250728314999
    H            2.673763135456    -0.208908630891     1.601475421183
    H            3.730045942878     1.115808934939     1.048019177351
    H            1.036336415894     1.540762478966     1.425124693351
    H            1.818453881696     2.267985192611     0.002826624719

	Removing binary optimization data file.
	Cleaning optimization helper files.


Properties will be evaluated at   0.000000,   0.000000,   0.000000 [a0]
OEProp: No title given, name of density matrix used for the following properties is 'SCF density'
  Mulliken Charges: (a.u.)
   Center  Symbol    Alpha    Beta     Spin     Total
       1     C     3.12072  3.12072  0.00000 -0.24145
       2     C     3.03732  3.03732  0.00000 -0.07465
       3     C     2.99129  2.99129  0.00000  0.01743
       4     C     3.00223  3.00223  0.00000 -0.00445
       5     C     3.00960  3.00960  0.00000 -0.01921
       6     C     3.00239  3.00239  0.00000 -0.00478
       7     C     2.99486  2.99486  0.00000  0.01027
       8     H     0.49715  0.49715  0.00000  0.00570
       9     H     0.49165  0.49165  0.00000  0.01670
      10     H     0.49195  0.49195  0.00000  0.01611
      11     H     0.49196  0.49196  0.00000  0.01609
      12     H     0.49853  0.49853  0.00000  0.00294
      13     C     2.97317  2.97317  0.00000  0.05365
      14     C     3.02201  3.02201  0.00000 -0.04402
      15     C     2.99315  2.99315  0.00000  0.01370
      16     C     3.05132  3.05132  0.00000 -0.10263
      17     H     0.49070  0.49070  0.00000  0.01860
      18     C     2.96504  2.96504  0.00000  0.06992
      19     H     0.48069  0.48069  0.00000  0.03862
      20     H     0.48525  0.48525  0.00000  0.02949
      21     H     0.48354  0.48354  0.00000  0.03292
      22     H     0.48474  0.48474  0.00000  0.03052
      23     H     0.48430  0.48430  0.00000  0.03140
      24     H     0.48788  0.48788  0.00000  0.02425
      25     H     0.48315  0.48315  0.00000  0.03370
      26     H     0.48541  0.48541  0.00000  0.02918

   Total alpha = 43.00000, Total beta = 43.00000, Total charge =  0.00000

    Molecular point group: c1
    Full point group: C1

    Geometry (in Angstrom), charge = 0, multiplicity = 1:

       Center              X                  Y                   Z               Mass       
    ------------   -----------------  -----------------  -----------------  -----------------
         C            0.732489884140     0.413341158584    -0.437279721066    12.000000000000
         C           -0.651282510235     0.025247810097     0.001997169823    12.000000000000
         C           -0.827570928852    -0.932672025440     1.021581081172    12.000000000000
         C           -2.111386719286    -1.275331908031     1.471774208021    12.000000000000
         C           -3.243029104392    -0.662255863987     0.906820076449    12.000000000000
         C           -3.079100656729     0.293346359500    -0.108029791634    12.000000000000
         C           -1.791073672505     0.634363789567    -0.554618537059    12.000000000000
         H           -1.666337633729     1.382431110578    -1.344945072417     1.007825032230
         H           -3.955449507691     0.775662644306    -0.553836426934     1.007825032230
         H           -4.245915451942    -0.930714917849     1.254377134488     1.007825032230
         H           -2.230587025373    -2.025115433507     2.261060834235     1.007825032230
         H            0.052749210240    -1.418837965321     1.457405628403     1.007825032230
         C            1.581010269422     1.306352896628     0.495432553490    12.000000000000
         C            2.865997999094     0.489066328599     0.764640611468    12.000000000000
         C            3.101589112644    -0.333040368533    -0.524914396015    12.000000000000
         C            1.693438021542    -0.587780172545    -1.077443656273    12.000000000000
         H            1.364292061885    -1.615482153097    -1.262983402602     1.007825032230
         C            1.063824291404     0.512091645443    -1.913425147419    12.000000000000
         H            0.287249024338     0.216742322137    -2.626536674008     1.007825032230
         H            1.705958268767     1.336514710768    -2.245651377539     1.007825032230
         H            3.635869491141    -1.276256373203    -0.319685980587     1.007825032230
         H            3.712732665511     0.235726047868    -1.250728314999     1.007825032230
         H            2.673763135456    -0.208908630891     1.601475421183     1.007825032230
         H            3.730045942878     1.115808934939     1.048019177351     1.007825032230
         H            1.036336415894     1.540762478966     1.425124693351     1.007825032230
         H            1.818453881696     2.267985192611     0.002826624719     1.007825032230



  Variable Map:
  ----------------------------------------------------------------------------
  "CC D1 DIAGNOSTIC"                      =>       0.027190550103
  "CC D2 DIAGNOSTIC"                      =>       0.187905645939
  "CC NEW D1 DIAGNOSTIC"                  =>       0.027190550103
  "CC T1 DIAGNOSTIC"                      =>       0.007769788094
  "CCSD CORRELATION ENERGY"               =>      -1.736342532832
  "CCSD DOUBLES ENERGY"                   =>      -1.736342532832
  "CCSD ITERATIONS"                       =>      15.000000000000
  "CCSD OPPOSITE-SPIN CORRELATION ENERGY" =>      -1.350884744399
  "CCSD SAME-SPIN CORRELATION ENERGY"     =>      -0.385457788433
  "CCSD SINGLES ENERGY"                   =>       0.000000000000
  "CCSD TOTAL ENERGY"                     =>    -464.309413882018
  "CURRENT CORRELATION ENERGY"            =>      -1.736342532832
  "CURRENT DIPOLE X"                      =>       0.250623578683
  "CURRENT DIPOLE Y"                      =>      -0.034272264475
  "CURRENT DIPOLE Z"                      =>       0.065512061711
  "CURRENT ENERGY"                        =>    -464.309413882018
  "CURRENT REFERENCE ENERGY"              =>    -462.572473097082
  "HF TOTAL ENERGY"                       =>    -462.572473097082
  "LCCSD (+LMP2) TOTAL ENERGY"            =>    -465.069289247860
  "MP2 CORRELATION ENERGY"                =>      -1.651129357432
  "MP2 DOUBLES ENERGY"                    =>      -1.651129357432
  "MP2 OPPOSITE-SPIN CORRELATION ENERGY"  =>      -1.222859928057
  "MP2 SAME-SPIN CORRELATION ENERGY"      =>      -0.428269429375
  "MP2 SINGLES ENERGY"                    =>      -0.000000000000
  "MP2 TOTAL ENERGY"                      =>    -464.224200706617
  "NUCLEAR REPULSION ENERGY"              =>     664.352335187007
  "ONE-ELECTRON ENERGY"                   =>   -1943.022205069934
  "OPTIMIZATION ITERATIONS"               =>      10.000000000000
  "PCM POLARIZATION ENERGY"               =>       0.000000000000
  "PE ENERGY"                             =>       0.000000000000
  "SCF DIPOLE X"                          =>       0.250623578683
  "SCF DIPOLE Y"                          =>      -0.034272264475
  "SCF DIPOLE Z"                          =>       0.065512061711
  "SCF ITERATION ENERGY"                  =>    -462.572473097082
  "SCF ITERATIONS"                        =>      13.000000000000
  "SCF TOTAL ENERGY"                      =>    -462.572473097082
  "TWO-ELECTRON ENERGY"                   =>     816.097396785846



    Psi4 stopped on: Sunday, 30 January 2022 01:49PM
    Psi4 wall time for execution: 1 day, 21:08:27.89

*** Psi4 exiting successfully. Buy a developer a beer!
