
    -----------------------------------------------------------------------
          Psi4: An Open-Source Ab Initio Electronic Structure Package
                               Psi4 1.4 release

                         Git: Rev {HEAD} 9485035 


    D. G. A. Smith, L. A. Burns, A. C. Simmonett, R. M. Parrish,
    M. C. Schieber, R. Galvelis, P. Kraus, H. Kruse, R. Di Remigio,
    A. Alenaizan, A. M. James, S. Lehtola, J. P. Misiewicz, M. Scheurer,
    R. A. Shaw, J. B. Schriber, Y. Xie, Z. L. Glick, D. A. Sirianni,
    J. S. O'Brien, J. M. Waldrop, A. Kumar, E. G. Hohenstein,
    B. P. Pritchard, B. R. Brooks, H. F. Schaefer III, A. Yu. Sokolov,
    K. Patkowski, A. E. DePrince III, U. Bozkaya, R. A. King,
    F. A. Evangelista, J. M. Turney, T. D. Crawford, C. D. Sherrill,
    J. Chem. Phys. 152(18) 184108 (2020). https://doi.org/10.1063/5.0006002

                            Additional Code Authors
    E. T. Seidl, C. L. Janssen, E. F. Valeev, M. L. Leininger,
    J. F. Gonthier, R. M. Richard, H. R. McAlexander, M. Saitow, X. Wang,
    P. Verma, and M. H. Lechner

             Previous Authors, Complete List of Code Contributors,
                       and Citations for Specific Modules
    https://github.com/psi4/psi4/blob/master/codemeta.json
    https://github.com/psi4/psi4/graphs/contributors
    http://psicode.org/psi4manual/master/introduction.html#citing-psifour

    -----------------------------------------------------------------------


    Psi4 started on: Thursday, 25 November 2021 11:43PM

    Process ID: 789194
    Host:       skystd28.palmetto.clemson.edu
    PSIDATADIR: /home/maxbuskirk/.conda/envs/psifour/share/psi4
    Memory:     500.0 MiB
    Threads:    1
    
  ==> Input File <==

--------------------------------------------------------------------------
molecule mol {
0 1
C 0.00000000 0.00000000 0.00000000
C -1.33160900 -0.52821100 0.39484800
C -1.43071100 -1.45269700 1.36587800
C -2.62792500 -1.93591800 1.73239500
C -3.74244100 -1.49412800 1.13010500
C -3.65384200 -0.56756700 0.16376000
C -2.45408900 -0.08753000 -0.19926200
H -2.39924400 0.68070000 -0.98910300
H -4.56915100 -0.19773500 -0.33032400
H -4.72851800 -1.88886800 1.43070300
H -2.69633900 -2.69630400 2.52975600
H -0.52149000 -1.82349700 1.86898600
C 0.80291000 0.82866100 0.99372200
C 2.05469100 -0.01352700 1.29254400
C 2.33965600 -0.73613400 -0.03532100
C 0.96570300 -0.98706800 -0.64018800
H 0.68568600 -2.02295000 -0.82494200
C 0.34304200 0.10457800 -1.46989700
H -0.39656500 -0.20546400 -2.20363900
H 0.96769800 0.93522300 -1.78708200
H 2.89906800 -1.68689100 0.13106700
H 2.94532000 -0.09317900 -0.71653600
H 1.81957400 -0.76486100 2.08426400
H 2.91658800 0.60476700 1.63908400
H 0.22390900 1.05449200 1.91967800
H 1.08828700 1.79961000 0.52491500
}

set scf_type df
set basis cc-pVTZ
set reference rhf

mol.update_geometry()
mol.symmetrize(1e-3)

e, wfn = optimize('mp2', return_wfn=True)
oeprop(wfn, "MULLIKEN_CHARGES")
mol.print_out()
print_variables()
--------------------------------------------------------------------------

Scratch directory: /local_scratch/pbs.4080462.pbs02/
gradient() will perform analytic gradient computation.

*** tstart() called on skystd28.palmetto.clemson.edu
*** at Thu Nov 25 23:43:28 2021

   => Loading Basis Set <=

    Name: CC-PVTZ
    Role: ORBITAL
    Keyword: BASIS
    atoms 1-7, 13-16, 18  entry C          line   186 file /home/maxbuskirk/.conda/envs/psifour/share/psi4/basis/cc-pvtz.gbs 
    atoms 8-12, 17, 19-26 entry H          line    23 file /home/maxbuskirk/.conda/envs/psifour/share/psi4/basis/cc-pvtz.gbs 


         ---------------------------------------------------------
                                   SCF
               by Justin Turney, Rob Parrish, Andy Simmonett
                          and Daniel G. A. Smith
                              RHF Reference
                        1 Threads,    500 MiB Core
         ---------------------------------------------------------

  ==> Geometry <==

    Molecular point group: c1
    Full point group: C1

    Geometry (in Angstrom), charge = 0, multiplicity = 1:

       Center              X                  Y                   Z               Mass       
    ------------   -----------------  -----------------  -----------------  -----------------
         C            0.674180460717     0.561564973389    -0.392519782418    12.000000000000
         C           -0.657428539283     0.033353973389     0.002328217582    12.000000000000
         C           -0.756530539283    -0.891132026611     0.973358217582    12.000000000000
         C           -1.953744539283    -1.374353026611     1.339875217582    12.000000000000
         C           -3.068260539283    -0.932563026611     0.737585217582    12.000000000000
         C           -2.979661539283    -0.006002026611    -0.228759782418    12.000000000000
         C           -1.779908539283     0.474034973389    -0.591781782418    12.000000000000
         H           -1.725063539283     1.242264973389    -1.381622782418     1.007825032230
         H           -3.894970539283     0.363829973389    -0.722843782418     1.007825032230
         H           -4.054337539283    -1.327303026611     1.038183217582     1.007825032230
         H           -2.022158539283    -2.134739026611     2.137236217582     1.007825032230
         H            0.152690460717    -1.261932026611     1.476466217582     1.007825032230
         C            1.477090460717     1.390225973389     0.601202217582    12.000000000000
         C            2.728871460717     0.548037973389     0.900024217582    12.000000000000
         C            3.013836460717    -0.174569026611    -0.427840782418    12.000000000000
         C            1.639883460717    -0.425503026611    -1.032707782418    12.000000000000
         H            1.359866460717    -1.461385026611    -1.217461782418     1.007825032230
         C            1.017222460717     0.666142973389    -1.862416782418    12.000000000000
         H            0.277615460717     0.356100973389    -2.596158782418     1.007825032230
         H            1.641878460717     1.496787973389    -2.179601782418     1.007825032230
         H            3.573248460717    -1.125326026611    -0.261452782418     1.007825032230
         H            3.619500460717     0.468385973389    -1.109055782418     1.007825032230
         H            2.493754460717    -0.203296026611     1.691744217582     1.007825032230
         H            3.590768460717     1.166331973389     1.246564217582     1.007825032230
         H            0.898089460717     1.616056973389     1.527158217582     1.007825032230
         H            1.762467460717     2.361174973389     0.132395217582     1.007825032230

  Running in c1 symmetry.

  Rotational constants: A =      0.07571  B =      0.02141  C =      0.01936 [cm^-1]
  Rotational constants: A =   2269.60782  B =    641.84797  C =    580.28171 [MHz]
  Nuclear repulsion =  680.105901532754501

  Charge       = 0
  Multiplicity = 1
  Electrons    = 86
  Nalpha       = 43
  Nbeta        = 43

  ==> Algorithm <==

  SCF Algorithm Type is DF.
  DIIS enabled.
  MOM disabled.
  Fractional occupation disabled.
  Guess Type is SAD.
  Energy threshold   = 1.00e-10
  Density threshold  = 1.00e-10
  Integral threshold = 1.00e-12

  ==> Primary Basis <==

  Basis Set: CC-PVTZ
    Blend: CC-PVTZ
    Number of shells: 204
    Number of basis functions: 556
    Number of Cartesian functions: 630
    Spherical Harmonics?: true
    Max angular momentum: 3

   => Loading Basis Set <=

    Name: (CC-PVTZ AUX)
    Role: JKFIT
    Keyword: DF_BASIS_SCF
    atoms 1-7, 13-16, 18  entry C          line   125 file /home/maxbuskirk/.conda/envs/psifour/share/psi4/basis/cc-pvtz-jkfit.gbs 
    atoms 8-12, 17, 19-26 entry H          line    51 file /home/maxbuskirk/.conda/envs/psifour/share/psi4/basis/cc-pvtz-jkfit.gbs 

  ==> Integral Setup <==

  ==> DiskDFJK: Density-Fitted J/K Matrices <==

    J tasked:                  Yes
    K tasked:                  Yes
    wK tasked:                  No
    OpenMP threads:              1
    Integrals threads:           1
    Memory [MiB]:              375
    Algorithm:                Disk
    Integral Cache:           NONE
    Schwarz Cutoff:          1E-12
    Fitting Condition:       1E-10

   => Auxiliary Basis Set <=

  Basis Set: (CC-PVTZ AUX)
    Blend: CC-PVTZ-JKFIT
    Number of shells: 440
    Number of basis functions: 1368
    Number of Cartesian functions: 1642
    Spherical Harmonics?: true
    Max angular momentum: 4

  Minimum eigenvalue in the overlap matrix is 2.2527871660E-05.
  Reciprocal condition number of the overlap matrix is 2.3239575944E-06.
    Using symmetric orthogonalization.

  ==> Pre-Iterations <==

  SCF Guess: Superposition of Atomic Densities via on-the-fly atomic UHF (no occupation information).

   -------------------------
    Irrep   Nso     Nmo    
   -------------------------
     A        556     556 
   -------------------------
    Total     556     556
   -------------------------

  ==> Iterations <==

                           Total Energy        Delta E     RMS |[F,P]|

   @DF-RHF iter SAD:  -463.41871445384305   -4.63419e+02   0.00000e+00 
   @DF-RHF iter   1:  -462.32053925644220    1.09818e+00   1.34150e-03 DIIS
   @DF-RHF iter   2:  -462.59397899257362   -2.73440e-01   6.74464e-04 DIIS
   @DF-RHF iter   3:  -462.66475567862574   -7.07767e-02   1.37403e-04 DIIS
   @DF-RHF iter   4:  -462.66905710159330   -4.30142e-03   4.89204e-05 DIIS
   @DF-RHF iter   5:  -462.66947879059563   -4.21689e-04   1.26817e-05 DIIS
   @DF-RHF iter   6:  -462.66951198635638   -3.31958e-05   2.95465e-06 DIIS
   @DF-RHF iter   7:  -462.66951422137481   -2.23502e-06   1.02203e-06 DIIS
   @DF-RHF iter   8:  -462.66951446824095   -2.46866e-07   2.56442e-07 DIIS
   @DF-RHF iter   9:  -462.66951449796670   -2.97258e-08   1.01279e-07 DIIS
   @DF-RHF iter  10:  -462.66951450350052   -5.53382e-09   5.13926e-08 DIIS
   @DF-RHF iter  11:  -462.66951450546065   -1.96013e-09   2.20968e-08 DIIS
   @DF-RHF iter  12:  -462.66951450584764   -3.86990e-10   9.47007e-09 DIIS
   @DF-RHF iter  13:  -462.66951450589795   -5.03064e-11   2.92509e-09 DIIS
   @DF-RHF iter  14:  -462.66951450590182   -3.86535e-12   9.50406e-10 DIIS
   @DF-RHF iter  15:  -462.66951450590284   -1.02318e-12   3.04890e-10 DIIS
   @DF-RHF iter  16:  -462.66951450590352   -6.82121e-13   1.08470e-10 DIIS
   @DF-RHF iter  17:  -462.66951450590329    2.27374e-13   5.02180e-11 DIIS
  Energy and wave function converged.


  ==> Post-Iterations <==

    Orbital Energies [Eh]
    ---------------------

    Doubly Occupied:                                                      

       1A    -11.230568     2A    -11.224984     3A    -11.224564  
       4A    -11.223450     5A    -11.222294     6A    -11.221183  
       7A    -11.218033     8A    -11.216753     9A    -11.215839  
      10A    -11.212977    11A    -11.212298    12A    -11.210981  
      13A     -1.195105    14A     -1.161938    15A     -1.042444  
      16A     -1.024777    17A     -1.018041    18A     -0.951857  
      19A     -0.849690    20A     -0.829640    21A     -0.812426  
      22A     -0.769952    23A     -0.742865    24A     -0.703541  
      25A     -0.652369    26A     -0.643920    27A     -0.626089  
      28A     -0.603952    29A     -0.582576    30A     -0.575767  
      31A     -0.565314    32A     -0.564063    33A     -0.527510  
      34A     -0.512006    35A     -0.485691    36A     -0.476059  
      37A     -0.470826    38A     -0.466230    39A     -0.462238  
      40A     -0.410391    41A     -0.387373    42A     -0.342777  
      43A     -0.325834  

    Virtual:                                                              

      44A      0.136637    45A      0.138676    46A      0.146626  
      47A      0.152714    48A      0.157528    49A      0.168031  
      50A      0.182136    51A      0.182559    52A      0.192546  
      53A      0.208031    54A      0.210882    55A      0.214645  
      56A      0.219679    57A      0.235690    58A      0.259717  
      59A      0.269151    60A      0.281094    61A      0.286564  
      62A      0.313041    63A      0.316866    64A      0.345017  
      65A      0.350035    66A      0.363929    67A      0.377194  
      68A      0.389822    69A      0.400214    70A      0.411850  
      71A      0.413167    72A      0.425747    73A      0.427985  
      74A      0.435017    75A      0.443254    76A      0.447533  
      77A      0.457443    78A      0.479841    79A      0.484597  
      80A      0.495179    81A      0.506613    82A      0.511599  
      83A      0.533736    84A      0.533861    85A      0.543207  
      86A      0.561125    87A      0.564646    88A      0.569842  
      89A      0.582901    90A      0.584636    91A      0.590769  
      92A      0.596508    93A      0.601658    94A      0.607067  
      95A      0.612498    96A      0.618037    97A      0.623870  
      98A      0.628650    99A      0.633281   100A      0.638685  
     101A      0.643650   102A      0.648108   103A      0.652980  
     104A      0.655518   105A      0.670155   106A      0.674659  
     107A      0.676984   108A      0.678430   109A      0.692170  
     110A      0.702426   111A      0.719809   112A      0.728527  
     113A      0.734858   114A      0.742639   115A      0.752750  
     116A      0.760188   117A      0.774653   118A      0.785742  
     119A      0.792466   120A      0.813301   121A      0.836392  
     122A      0.855583   123A      0.866194   124A      0.874942  
     125A      0.880539   126A      0.895151   127A      0.919988  
     128A      0.935021   129A      0.948348   130A      0.963607  
     131A      0.969640   132A      0.988234   133A      0.995080  
     134A      1.003074   135A      1.014233   136A      1.024588  
     137A      1.033747   138A      1.048003   139A      1.048833  
     140A      1.058687   141A      1.073076   142A      1.075872  
     143A      1.088911   144A      1.090542   145A      1.108764  
     146A      1.129361   147A      1.135642   148A      1.138411  
     149A      1.162517   150A      1.169307   151A      1.181367  
     152A      1.186199   153A      1.198083   154A      1.205859  
     155A      1.212079   156A      1.222204   157A      1.226637  
     158A      1.239967   159A      1.248288   160A      1.261397  
     161A      1.272573   162A      1.291805   163A      1.292761  
     164A      1.295693   165A      1.310537   166A      1.317413  
     167A      1.329161   168A      1.338815   169A      1.348756  
     170A      1.355557   171A      1.364455   172A      1.365110  
     173A      1.385803   174A      1.393562   175A      1.406358  
     176A      1.416267   177A      1.418640   178A      1.422521  
     179A      1.444402   180A      1.445001   181A      1.467281  
     182A      1.468437   183A      1.477276   184A      1.490489  
     185A      1.507177   186A      1.515011   187A      1.520044  
     188A      1.535445   189A      1.544276   190A      1.549835  
     191A      1.557701   192A      1.559946   193A      1.570254  
     194A      1.575654   195A      1.587026   196A      1.597149  
     197A      1.604225   198A      1.609387   199A      1.613023  
     200A      1.622171   201A      1.628407   202A      1.642996  
     203A      1.647292   204A      1.662370   205A      1.668261  
     206A      1.691240   207A      1.698488   208A      1.704143  
     209A      1.711422   210A      1.719579   211A      1.737996  
     212A      1.751099   213A      1.759362   214A      1.770558  
     215A      1.776364   216A      1.792631   217A      1.802336  
     218A      1.827428   219A      1.841279   220A      1.860971  
     221A      1.879100   222A      1.894351   223A      1.902214  
     224A      1.949954   225A      1.979882   226A      2.001151  
     227A      2.023518   228A      2.026321   229A      2.044951  
     230A      2.094678   231A      2.135422   232A      2.148790  
     233A      2.179499   234A      2.241925   235A      2.253635  
     236A      2.343626   237A      2.368177   238A      2.401859  
     239A      2.413485   240A      2.466759   241A      2.521712  
     242A      2.523726   243A      2.530560   244A      2.567871  
     245A      2.580784   246A      2.598254   247A      2.610367  
     248A      2.622935   249A      2.626376   250A      2.677860  
     251A      2.699106   252A      2.699621   253A      2.711272  
     254A      2.731526   255A      2.748493   256A      2.767650  
     257A      2.776523   258A      2.791744   259A      2.799059  
     260A      2.814864   261A      2.825874   262A      2.837638  
     263A      2.848290   264A      2.869963   265A      2.875231  
     266A      2.888886   267A      2.894511   268A      2.907511  
     269A      2.912369   270A      2.923377   271A      2.930984  
     272A      2.940132   273A      2.952620   274A      2.962120  
     275A      2.970593   276A      2.985970   277A      2.993182  
     278A      3.004951   279A      3.012190   280A      3.019323  
     281A      3.025314   282A      3.032209   283A      3.040148  
     284A      3.059863   285A      3.065782   286A      3.069905  
     287A      3.074781   288A      3.080363   289A      3.096739  
     290A      3.104326   291A      3.109443   292A      3.120127  
     293A      3.129986   294A      3.155046   295A      3.157945  
     296A      3.170943   297A      3.188121   298A      3.209183  
     299A      3.218192   300A      3.225002   301A      3.240884  
     302A      3.253088   303A      3.256948   304A      3.267599  
     305A      3.269468   306A      3.277083   307A      3.287362  
     308A      3.304883   309A      3.317436   310A      3.330470  
     311A      3.345083   312A      3.351864   313A      3.369201  
     314A      3.373164   315A      3.377143   316A      3.384312  
     317A      3.388209   318A      3.399338   319A      3.404586  
     320A      3.406486   321A      3.415253   322A      3.421762  
     323A      3.428018   324A      3.431485   325A      3.437710  
     326A      3.449919   327A      3.457845   328A      3.458691  
     329A      3.466627   330A      3.476002   331A      3.485672  
     332A      3.487193   333A      3.496084   334A      3.515598  
     335A      3.524322   336A      3.528727   337A      3.539344  
     338A      3.545807   339A      3.554702   340A      3.568938  
     341A      3.577198   342A      3.584853   343A      3.599407  
     344A      3.612344   345A      3.621431   346A      3.638821  
     347A      3.642130   348A      3.648802   349A      3.656838  
     350A      3.675247   351A      3.678187   352A      3.692717  
     353A      3.697838   354A      3.700835   355A      3.705276  
     356A      3.708082   357A      3.715001   358A      3.722162  
     359A      3.735429   360A      3.753235   361A      3.760499  
     362A      3.768526   363A      3.776453   364A      3.792443  
     365A      3.800207   366A      3.818648   367A      3.836784  
     368A      3.850611   369A      3.852873   370A      3.870819  
     371A      3.889413   372A      3.897253   373A      3.904772  
     374A      3.915017   375A      3.936712   376A      3.951561  
     377A      3.952838   378A      3.973331   379A      3.987047  
     380A      3.998431   381A      4.009526   382A      4.027589  
     383A      4.044404   384A      4.049118   385A      4.061214  
     386A      4.071800   387A      4.079750   388A      4.087824  
     389A      4.091154   390A      4.107019   391A      4.122941  
     392A      4.130282   393A      4.141386   394A      4.151468  
     395A      4.157555   396A      4.163148   397A      4.168758  
     398A      4.174203   399A      4.185638   400A      4.192664  
     401A      4.197770   402A      4.203911   403A      4.211710  
     404A      4.221019   405A      4.229652   406A      4.237107  
     407A      4.241908   408A      4.267106   409A      4.281313  
     410A      4.283754   411A      4.304516   412A      4.308040  
     413A      4.318908   414A      4.329024   415A      4.335815  
     416A      4.347581   417A      4.354524   418A      4.369858  
     419A      4.377706   420A      4.383149   421A      4.395893  
     422A      4.400457   423A      4.413179   424A      4.425885  
     425A      4.432163   426A      4.440927   427A      4.451986  
     428A      4.457512   429A      4.466702   430A      4.480004  
     431A      4.493606   432A      4.495078   433A      4.511185  
     434A      4.524559   435A      4.525124   436A      4.557380  
     437A      4.562390   438A      4.571420   439A      4.581974  
     440A      4.586504   441A      4.592298   442A      4.596197  
     443A      4.619662   444A      4.630020   445A      4.636372  
     446A      4.649304   447A      4.654062   448A      4.674953  
     449A      4.679308   450A      4.693697   451A      4.707147  
     452A      4.716379   453A      4.728037   454A      4.740772  
     455A      4.747912   456A      4.755162   457A      4.766753  
     458A      4.779280   459A      4.789799   460A      4.802486  
     461A      4.829312   462A      4.844988   463A      4.848359  
     464A      4.865530   465A      4.879144   466A      4.899352  
     467A      4.930366   468A      4.945254   469A      4.957757  
     470A      4.969807   471A      5.009595   472A      5.018055  
     473A      5.027263   474A      5.043639   475A      5.052895  
     476A      5.065165   477A      5.085270   478A      5.105049  
     479A      5.127240   480A      5.136795   481A      5.152834  
     482A      5.168967   483A      5.179004   484A      5.204865  
     485A      5.227810   486A      5.245340   487A      5.254725  
     488A      5.264052   489A      5.277375   490A      5.285025  
     491A      5.312969   492A      5.314102   493A      5.333776  
     494A      5.355265   495A      5.371490   496A      5.375585  
     497A      5.388697   498A      5.401213   499A      5.408761  
     500A      5.432111   501A      5.447270   502A      5.451349  
     503A      5.475320   504A      5.481016   505A      5.501142  
     506A      5.529509   507A      5.550768   508A      5.562711  
     509A      5.576084   510A      5.580050   511A      5.596856  
     512A      5.631233   513A      5.638568   514A      5.649697  
     515A      5.662658   516A      5.680515   517A      5.716458  
     518A      5.746598   519A      5.775853   520A      5.806335  
     521A      5.828195   522A      5.837587   523A      5.864386  
     524A      5.887894   525A      5.927993   526A      5.995868  
     527A      6.043285   528A      6.076195   529A      6.095098  
     530A      6.137155   531A      6.187500   532A      6.227912  
     533A      6.254399   534A      6.276113   535A      6.368323  
     536A      6.403688   537A      6.428921   538A      6.488532  
     539A      6.506059   540A      6.603606   541A      6.621816  
     542A      6.637192   543A      6.982968   544A      7.465155  
     545A      9.639210   546A     12.138788   547A     12.450019  
     548A     12.720613   549A     13.377386   550A     13.791371  
     551A     13.886013   552A     14.094100   553A     14.392399  
     554A     14.786718   555A     15.261805   556A     17.669369  

    Final Occupation by Irrep:
              A 
    DOCC [    43 ]

  @DF-RHF Final Energy:  -462.66951450590329

   => Energetics <=

    Nuclear Repulsion Energy =            680.1059015327545012
    One-Electron Energy =               -1974.7164561601691730
    Two-Electron Energy =                 831.9410401215114916
    Total Energy =                       -462.6695145059032939

Computation Completed


Properties will be evaluated at   0.000000,   0.000000,   0.000000 [a0]

Properties computed using the SCF density matrix

  Nuclear Dipole Moment: [e a0]
     X:     7.1935      Y:     1.4596      Z:    -0.2048

  Electronic Dipole Moment: [e a0]
     X:    -7.0924      Y:    -1.4721      Z:     0.2135

  Dipole Moment: [e a0]
     X:     0.1011      Y:    -0.0125      Z:     0.0087     Total:     0.1022

  Dipole Moment: [D]
     X:     0.2570      Y:    -0.0318      Z:     0.0221     Total:     0.2599


*** tstop() called on skystd28.palmetto.clemson.edu at Thu Nov 25 23:45:05 2021
Module time:
	user time   =      88.67 seconds =       1.48 minutes
	system time =       8.73 seconds =       0.15 minutes
	total time  =         97 seconds =       1.62 minutes
Total time:
	user time   =      88.67 seconds =       1.48 minutes
	system time =       8.73 seconds =       0.15 minutes
	total time  =         97 seconds =       1.62 minutes

*** tstart() called on skystd28.palmetto.clemson.edu
*** at Thu Nov 25 23:45:05 2021


  //>>>>>>>>>>>>>>>>>>>>>>>>>>>>>>>>>>>//
  //               DFMP2               //
  //<<<<<<<<<<<<<<<<<<<<<<<<<<<<<<<<<<<//

   => Loading Basis Set <=

    Name: (CC-PVTZ AUX)
    Role: RIFIT
    Keyword: DF_BASIS_MP2
    atoms 1-7, 13-16, 18  entry C          line   209 file /home/maxbuskirk/.conda/envs/psifour/share/psi4/basis/cc-pvtz-ri.gbs 
    atoms 8-12, 17, 19-26 entry H          line    19 file /home/maxbuskirk/.conda/envs/psifour/share/psi4/basis/cc-pvtz-ri.gbs 

	 --------------------------------------------------------
	                          DF-MP2                         
	      2nd-Order Density-Fitted Moller-Plesset Theory     
	              RMP2 Wavefunction,   1 Threads             
	                                                         
	        Rob Parrish, Justin Turney, Andy Simmonett,      
	           Ed Hohenstein, and C. David Sherrill          
	 --------------------------------------------------------

   => Auxiliary Basis Set <=

  Basis Set: (CC-PVTZ AUX)
    Blend: CC-PVTZ-RI
    Number of shells: 416
    Number of basis functions: 1392
    Number of Cartesian functions: 1702
    Spherical Harmonics?: true
    Max angular momentum: 4

	 --------------------------------------------------------
	                 NBF =   556, NAUX =  1392
	 --------------------------------------------------------
	   CLASS    FOCC     OCC    AOCC    AVIR     VIR    FVIR
	   PAIRS       0      43      43     513     513       0
	 --------------------------------------------------------


         ------------------------------------------------------------
                                     CPHF                           
                                  Rob Parrish                       
         ------------------------------------------------------------

  ==> Geometry <==

    Molecular point group: c1
    Full point group: C1

    Geometry (in Angstrom), charge = 0, multiplicity = 1:

       Center              X                  Y                   Z               Mass       
    ------------   -----------------  -----------------  -----------------  -----------------
         C            0.674180460717     0.561564973389    -0.392519782418    12.000000000000
         C           -0.657428539283     0.033353973389     0.002328217582    12.000000000000
         C           -0.756530539283    -0.891132026611     0.973358217582    12.000000000000
         C           -1.953744539283    -1.374353026611     1.339875217582    12.000000000000
         C           -3.068260539283    -0.932563026611     0.737585217582    12.000000000000
         C           -2.979661539283    -0.006002026611    -0.228759782418    12.000000000000
         C           -1.779908539283     0.474034973389    -0.591781782418    12.000000000000
         H           -1.725063539283     1.242264973389    -1.381622782418     1.007825032230
         H           -3.894970539283     0.363829973389    -0.722843782418     1.007825032230
         H           -4.054337539283    -1.327303026611     1.038183217582     1.007825032230
         H           -2.022158539283    -2.134739026611     2.137236217582     1.007825032230
         H            0.152690460717    -1.261932026611     1.476466217582     1.007825032230
         C            1.477090460717     1.390225973389     0.601202217582    12.000000000000
         C            2.728871460717     0.548037973389     0.900024217582    12.000000000000
         C            3.013836460717    -0.174569026611    -0.427840782418    12.000000000000
         C            1.639883460717    -0.425503026611    -1.032707782418    12.000000000000
         H            1.359866460717    -1.461385026611    -1.217461782418     1.007825032230
         C            1.017222460717     0.666142973389    -1.862416782418    12.000000000000
         H            0.277615460717     0.356100973389    -2.596158782418     1.007825032230
         H            1.641878460717     1.496787973389    -2.179601782418     1.007825032230
         H            3.573248460717    -1.125326026611    -0.261452782418     1.007825032230
         H            3.619500460717     0.468385973389    -1.109055782418     1.007825032230
         H            2.493754460717    -0.203296026611     1.691744217582     1.007825032230
         H            3.590768460717     1.166331973389     1.246564217582     1.007825032230
         H            0.898089460717     1.616056973389     1.527158217582     1.007825032230
         H            1.762467460717     2.361174973389     0.132395217582     1.007825032230

  Nuclear repulsion =  680.105901532754501
  Reference energy  = -462.669514505903294

  ==> Basis Set <==

  Basis Set: CC-PVTZ
    Blend: CC-PVTZ
    Number of shells: 204
    Number of basis functions: 556
    Number of Cartesian functions: 630
    Spherical Harmonics?: true
    Max angular momentum: 3

  ==> CGRSolver (by Rob Parrish) <==

   Number of roots    =         1
   Preconditioning    =    JACOBI
   Convergence cutoff =     1E-06
   Maximum iterations =       100

  ==> CPHFRHamiltonian (by Rob Parrish) <== 

  ==> DiskDFJK: Density-Fitted J/K Matrices <==

    J tasked:                  Yes
    K tasked:                  Yes
    wK tasked:                  No
    OpenMP threads:              1
    Integrals threads:           1
    Memory [MiB]:              375
    Algorithm:                Disk
    Integral Cache:           NONE
    Schwarz Cutoff:          1E-12
    Fitting Condition:       1E-10

   => Auxiliary Basis Set <=

  Basis Set: (CC-PVTZ AUX)
    Blend: CC-PVTZ-JKFIT
    Number of shells: 440
    Number of basis functions: 1368
    Number of Cartesian functions: 1642
    Spherical Harmonics?: true
    Max angular momentum: 4

  ==> CPHF Iterations <==

  => Iterations <=

             Iter  Converged  Remaining    Residual
  CGR           1          0          1   8.240E-02
  CGR           2          0          1   1.603E-02
  CGR           3          0          1   6.141E-03
  CGR           4          0          1   2.713E-03
  CGR           5          0          1   1.241E-03
  CGR           6          0          1   5.810E-04
  CGR           7          0          1   1.991E-04
  CGR           8          0          1   4.856E-05
  CGR           9          0          1   1.719E-05
  CGR          10          0          1   5.063E-06
  CGR          11          0          1   1.822E-06
  CGR          12          1          0   6.280E-07

    CGRSolver converged.

  ==> DFCorrGrad: Density-Fitted Correlated Gradients <==

    OpenMP threads:              1
    Integrals threads:           1
    Memory [GiB]:            0.366
    Schwarz Cutoff:          0E+00
    Fitting Condition:       1E-10

   => Auxiliary Basis Set <=

  Basis Set: (CC-PVTZ AUX)
    Blend: CC-PVTZ-JKFIT
    Number of shells: 440
    Number of basis functions: 1368
    Number of Cartesian functions: 1642
    Spherical Harmonics?: true
    Max angular momentum: 4

	-----------------------------------------------------------
	 ==================> DF-MP2 Energies <==================== 
	-----------------------------------------------------------
	 Reference Energy          =    -462.6695145059032939 [Eh]
	 Singles Energy            =      -0.0000000000000000 [Eh]
	 Same-Spin Energy          =      -0.5152174596109896 [Eh]
	 Opposite-Spin Energy      =      -1.6331724134134848 [Eh]
	 Correlation Energy        =      -2.1483898730244744 [Eh]
	 Total Energy              =    -464.8179043789277785 [Eh]
	-----------------------------------------------------------
	 ================> DF-SCS-MP2 Energies <================== 
	-----------------------------------------------------------
	 SCS Same-Spin Scale       =       0.3333333333333333 [-]
	 SCS Opposite-Spin Scale   =       1.2000000000000000 [-]
	 SCS Same-Spin Energy      =      -0.1717391532036632 [Eh]
	 SCS Opposite-Spin Energy  =      -1.9598068960961816 [Eh]
	 SCS Correlation Energy    =      -2.1315460492998448 [Eh]
	 SCS Total Energy          =    -464.8010605552031507 [Eh]
	-----------------------------------------------------------


  -Total Gradient:
     Atom            X                  Y                   Z
    ------   -----------------  -----------------  -----------------
       1        0.004003868387     0.017611218124     0.005617972923
       2       -0.047221344767    -0.025918975817     0.017593608125
       3       -0.050431473055     0.022576662779    -0.032112029145
       4        0.002328358131     0.045219266452    -0.048689339911
       5        0.062021150656     0.024068075195    -0.018022082651
       6        0.055573971108    -0.022003442675     0.029662132047
       7       -0.000202966514    -0.043910736026     0.045506502641
       8       -0.001507431646     0.011072744570    -0.011146010470
       9       -0.013732839792     0.005500873548    -0.007231716427
      10       -0.015119802484    -0.005854739468     0.004759648390
      11       -0.001272638388    -0.011219553087     0.011954672928
      12        0.011336351863    -0.005451313353     0.008248328687
      13        0.000827979743    -0.014287159746    -0.004952818144
      14       -0.008136468454    -0.002377730980    -0.007117473501
      15       -0.013610828145     0.004678245301     0.004488084187
      16       -0.007683476478    -0.000355598663    -0.002986485124
      17        0.002975173359    -0.009249212672    -0.000831687854
      18       -0.000945165215    -0.001170852287    -0.003723478996
      19       -0.002138515472    -0.002658419818    -0.006584660129
      20        0.001229268731     0.004575374289    -0.002507725535
      21        0.008519964113    -0.016131047655     0.004614161272
      22        0.006922004026     0.009448777240    -0.011471836160
      23       -0.003422288106    -0.011841801348     0.012942378064
      24        0.014006141969     0.011059371372     0.003579558454
      25       -0.007646950170     0.003477920156     0.016634224590
      26        0.003327956587     0.013142054568    -0.008223928264


*** tstop() called on skystd28.palmetto.clemson.edu at Thu Nov 25 23:51:27 2021
Module time:
	user time   =     367.30 seconds =       6.12 minutes
	system time =      11.93 seconds =       0.20 minutes
	total time  =        382 seconds =       6.37 minutes
Total time:
	user time   =     455.97 seconds =       7.60 minutes
	system time =      20.66 seconds =       0.34 minutes
	total time  =        479 seconds =       7.98 minutes

			-----------------------------------------
			 OPTKING 2.0: for geometry optimizations 
			  - R.A. King,  Bethel University        
			-----------------------------------------

	Internal coordinates to be generated automatically.
	Detected frag 1 with atoms:  1 2 3 4 5 6 7 8 9 10 11 12 13 14 15 16 17 18 19 20
	 21 22 23 24 25 26
	---Fragment 1 Bond Connectivity---
	 1 : 2 13 16 18
	 2 : 1 3 7
	 3 : 2 4 12
	 4 : 3 5 11
	 5 : 4 6 10
	 6 : 5 7 9
	 7 : 2 6 8
	 8 : 7
	 9 : 6
	 10 : 5
	 11 : 4
	 12 : 3
	 13 : 1 14 25 26
	 14 : 13 15 23 24
	 15 : 14 16 21 22
	 16 : 1 15 17 18
	 17 : 16
	 18 : 1 16 19 20
	 19 : 18
	 20 : 18
	 21 : 15
	 22 : 15
	 23 : 14
	 24 : 14
	 25 : 13
	 26 : 13

	---Fragment 1 Geometry and Gradient---
	 C           1.2740164299        1.0612040014       -0.7417548876
	 C          -1.2423598863        0.0630298749        0.0043996936
	 C          -1.4296355248       -1.6839954719        1.8393804532
	 C          -3.6920420984       -2.5971508200        2.5319972035
	 C          -5.7981721008       -1.7622887150        1.3938340554
	 C          -5.6307442558       -0.0113421865       -0.4322933373
	 C          -3.3635396676        0.8957962736       -1.1183054948
	 H          -3.2598976383        2.3475405750       -2.6108886675
	 H          -7.3604275860        0.6875390059       -1.3659767803
	 H          -7.6615875694       -2.5082392058        1.9618819493
	 H          -3.8213258215       -4.0340721096        4.0387911166
	 H           0.2885431527       -2.3847059192        2.7901167847
	 C           2.7912964333        2.6271463422        1.1361075372
	 C           5.1568196923        1.0356416761        1.7007992775
	 C           5.6953254977       -0.3298876503       -0.8085019041
	 C           3.0989306184       -0.8040841858       -1.9515348764
	 H           2.5697751780       -2.7616174641       -2.3006693370
	 C           1.9222718594        1.2588277801       -3.5194576502
	 H           0.5246171889        0.6729333127       -4.9060290770
	 H           3.1027006220        2.8285193376       -4.1188504313
	 H           6.7524609690       -2.1265579921       -0.4940741535
	 H           6.8398645817        0.8851212107       -2.0958116866
	 H           4.7125129549       -0.3841738127        3.1969332456
	 H           6.7855689707        2.2040480011        2.3556649690
	 H           1.6971431169        3.0539050828        2.8859107815
	 H           3.3305808058        4.4619740340        0.2501907016
	             0.0040038684        0.0176112181        0.0056179729
	            -0.0472213448       -0.0259189758        0.0175936081
	            -0.0504314731        0.0225766628       -0.0321120291
	             0.0023283581        0.0452192665       -0.0486893399
	             0.0620211507        0.0240680752       -0.0180220827
	             0.0555739711       -0.0220034427        0.0296621320
	            -0.0002029665       -0.0439107360        0.0455065026
	            -0.0015074316        0.0110727446       -0.0111460105
	            -0.0137328398        0.0055008735       -0.0072317164
	            -0.0151198025       -0.0058547395        0.0047596484
	            -0.0012726384       -0.0112195531        0.0119546729
	             0.0113363519       -0.0054513134        0.0082483287
	             0.0008279797       -0.0142871597       -0.0049528181
	            -0.0081364685       -0.0023777310       -0.0071174735
	            -0.0136108281        0.0046782453        0.0044880842
	            -0.0076834765       -0.0003555987       -0.0029864851
	             0.0029751734       -0.0092492127       -0.0008316879
	            -0.0009451652       -0.0011708523       -0.0037234790
	            -0.0021385155       -0.0026584198       -0.0065846601
	             0.0012292687        0.0045753743       -0.0025077255
	             0.0085199641       -0.0161310477        0.0046141613
	             0.0069220040        0.0094487772       -0.0114718362
	            -0.0034222881       -0.0118418013        0.0129423781
	             0.0140061420        0.0110593714        0.0035795585
	            -0.0076469502        0.0034779202        0.0166342246
	             0.0033279566        0.0131420546       -0.0082239283

	Previous optimization step data not found.  Starting new optimization.

	---Fragment 1 Intrafragment Coordinates---
	 - Coordinate -           - BOHR/RAD -       - ANG/DEG -
	 R(1,2)           =         2.808068	       1.485966
	 R(1,13)          =         2.877617	       1.522769
	 R(1,16)          =         2.876314	       1.522080
	 R(1,18)          =         2.859182	       1.513014
	 R(2,3)           =         2.540536	       1.344394
	 R(2,7)           =         2.540348	       1.344295
	 R(3,4)           =         2.536149	       1.342072
	 R(3,12)          =         2.084954	       1.103310
	 R(4,5)           =         2.535388	       1.341670
	 R(4,11)          =         2.086117	       1.103926
	 R(5,6)           =         2.535466	       1.341711
	 R(5,10)          =         2.086010	       1.103869
	 R(6,7)           =         2.536480	       1.342247
	 R(6,9)           =         2.086146	       1.103941
	 R(7,8)           =         2.084732	       1.103193
	 R(13,14)         =         2.906452	       1.538028
	 R(13,25)         =         2.107393	       1.115184
	 R(13,26)         =         2.107669	       1.115330
	 R(14,15)         =         2.907104	       1.538373
	 R(14,23)         =         2.109906	       1.116514
	 R(14,24)         =         2.108755	       1.115905
	 R(15,16)         =         2.876222	       1.522031
	 R(15,21)         =         2.108180	       1.115601
	 R(15,22)         =         2.107933	       1.115470
	 R(16,17)         =         2.057629	       1.088850
	 R(16,18)         =         2.845789	       1.505927
	 R(18,19)         =         2.054091	       1.086978
	 R(18,20)         =         2.053440	       1.086634
	 B(1,2,3)         =         2.097193	     120.160299
	 B(1,2,7)         =         2.110985	     120.950530
	 B(1,13,14)       =         1.831692	     104.948207
	 B(1,13,25)       =         1.958741	     112.227590
	 B(1,13,26)       =         1.911711	     109.532970
	 B(1,16,15)       =         1.874094	     107.377697
	 B(1,16,17)       =         2.123695	     121.678750
	 B(1,16,18)       =         1.046394	      59.953961
	 B(1,18,16)       =         1.056847	      60.552892
	 B(1,18,19)       =         2.073511	     118.803448
	 B(1,18,20)       =         2.056409	     117.823531
	 B(2,1,13)        =         2.085797	     119.507362
	 B(2,1,16)        =         2.037336	     116.730761
	 B(2,1,18)        =         2.078179	     119.070878
	 B(2,3,4)         =         2.106688	     120.704322
	 B(2,3,12)        =         2.094072	     119.981496
	 B(2,7,6)         =         2.105497	     120.636109
	 B(2,7,8)         =         2.098079	     120.211078
	 B(3,2,7)         =         2.074972	     118.887127
	 B(3,4,5)         =         2.094250	     119.991675
	 B(3,4,11)        =         2.095029	     120.036307
	 B(4,3,12)        =         2.082423	     119.314054
	 B(4,5,6)         =         2.089625	     119.726715
	 B(4,5,10)        =         2.096771	     120.136139
	 B(5,4,11)        =         2.093906	     119.972004
	 B(5,6,7)         =         2.095313	     120.052591
	 B(5,6,9)         =         2.093185	     119.930676
	 B(6,5,10)        =         2.096783	     120.136833
	 B(6,7,8)         =         2.079587	     119.151569
	 B(7,6,9)         =         2.094682	     120.016412
	 B(13,1,16)       =         1.867994	     107.028148
	 B(13,1,18)       =         2.067829	     118.477850
	 B(13,14,15)      =         1.813439	     103.902375
	 B(13,14,23)      =         1.912254	     109.564068
	 B(13,14,24)      =         1.966615	     112.678735
	 B(14,13,25)      =         1.952103	     111.847282
	 B(14,13,26)      =         1.928485	     110.494038
	 B(14,15,16)      =         1.826838	     104.670098
	 B(14,15,21)      =         1.943853	     111.374556
	 B(14,15,22)      =         1.935810	     110.913764
	 B(15,14,23)      =         1.912387	     109.571731
	 B(15,14,24)      =         1.966263	     112.658582
	 B(15,16,17)      =         2.044771	     117.156776
	 B(15,16,18)      =         2.063138	     118.209116
	 B(16,1,18)       =         1.038351	      59.493147
	 B(16,15,21)      =         1.951339	     111.803495
	 B(16,15,22)      =         1.920347	     110.027783
	 B(16,18,19)      =         2.033633	     116.518588
	 B(16,18,20)      =         2.068337	     118.506957
	 B(17,16,18)      =         2.082677	     119.328625
	 B(19,18,20)      =         1.995602	     114.339595
	 B(21,15,22)      =         1.886035	     108.061852
	 B(23,14,24)      =         1.891560	     108.378423
	 B(25,13,26)      =         1.881325	     107.791982
	 D(1,2,3,4)       =         3.140015	     179.909589
	 D(1,2,3,12)      =        -0.003867	      -0.221554
	 D(1,2,7,6)       =        -3.139833	    -179.899175
	 D(1,2,7,8)       =        -0.005382	      -0.308370
	 D(1,13,14,15)    =         0.582496	      33.374548
	 D(1,13,14,23)    =        -1.459777	     -83.639076
	 D(1,13,14,24)    =         2.716087	     155.620349
	 D(1,16,15,14)    =         0.369820	      21.189108
	 D(1,16,15,21)    =         2.476381	     141.886172
	 D(1,16,15,22)    =        -1.710967	     -98.031167
	 D(1,16,18,19)    =        -1.914138	    -109.672055
	 D(1,16,18,20)    =         1.878980	     107.657628
	 D(1,18,16,15)    =        -1.652158	     -94.661664
	 D(1,18,16,17)    =         1.950772	     111.771010
	 D(2,1,13,14)     =         2.008008	     115.050369
	 D(2,1,13,25)     =        -0.115728	      -6.630742
	 D(2,1,13,26)     =        -2.204619	    -126.315365
	 D(2,1,16,15)     =        -2.398398	    -137.418108
	 D(2,1,16,17)     =         0.028224	       1.617120
	 D(2,1,16,18)     =         1.912091	     109.554741
	 D(2,1,18,16)     =        -1.843945	    -105.650253
	 D(2,1,18,19)     =         0.005139	       0.294417
	 D(2,1,18,20)     =         2.540852	     145.580092
	 D(2,3,4,5)       =        -0.002820	      -0.161589
	 D(2,3,4,11)      =         3.139507	     179.880511
	 D(2,7,6,5)       =         0.002611	       0.149602
	 D(2,7,6,9)       =         3.140602	     179.943236
	 D(3,2,1,13)      =        -1.152404	     -66.027913
	 D(3,2,1,16)      =         1.141569	      65.407068
	 D(3,2,1,18)      =         2.332995	     133.670791
	 D(3,2,7,6)       =        -0.007305	      -0.418518
	 D(3,2,7,8)       =         3.127146	     179.172287
	 D(3,4,5,6)       =        -0.001991	      -0.114053
	 D(3,4,5,10)      =        -3.140037	    -179.910849
	 D(4,3,2,7)       =         0.007413	       0.424721
	 D(4,5,6,7)       =         0.002094	       0.119979
	 D(4,5,6,9)       =        -3.135900	    -179.673834
	 D(5,4,3,12)      =         3.141046	     179.968688
	 D(5,6,7,8)       =        -3.131915	    -179.445494
	 D(6,5,4,11)      =         3.138868	     179.843874
	 D(7,2,1,13)      =         1.980009	     113.446166
	 D(7,2,1,16)      =        -2.009203	    -115.118853
	 D(7,2,1,18)      =        -0.817776	     -46.855130
	 D(7,2,3,12)      =        -3.136469	    -179.706422
	 D(7,6,5,10)      =         3.140140	     179.916773
	 D(8,7,6,9)       =         0.006076	       0.348141
	 D(9,6,5,10)      =         0.002146	       0.122960
	 D(10,5,4,11)     =         0.000822	       0.047079
	 D(11,4,3,12)     =         0.000188	       0.010787
	 D(13,1,16,15)    =        -0.007818	      -0.447959
	 D(13,1,16,17)    =         2.418804	     138.587269
	 D(13,1,16,18)    =        -1.980514	    -113.475109
	 D(13,1,18,16)    =         1.637910	      93.845334
	 D(13,1,18,19)    =        -2.796192	    -160.209996
	 D(13,1,18,20)    =        -0.260479	     -14.924321
	 D(13,14,15,16)   =        -0.585810	     -33.564419
	 D(13,14,15,21)   =        -2.697333	    -154.545773
	 D(13,14,15,22)   =         1.484529	      85.057233
	 D(14,13,1,16)    =        -0.357787	     -20.499691
	 D(14,13,1,18)    =        -1.475364	     -84.532106
	 D(14,15,16,17)   =        -2.094026	    -119.978865
	 D(14,15,16,18)   =         1.498907	      85.881054
	 D(15,14,13,25)   =         2.710564	     155.303895
	 D(15,14,13,26)   =        -1.476720	     -84.609838
	 D(15,16,1,18)    =         1.972696	     113.027150
	 D(15,16,18,19)   =         2.716889	     155.666282
	 D(15,16,18,20)   =         0.226822	      12.995964
	 D(16,1,13,25)    =        -2.481523	    -142.180802
	 D(16,1,13,26)    =         1.712771	      98.134576
	 D(16,1,18,19)    =         1.849083	     105.944670
	 D(16,1,18,20)    =        -1.898389	    -108.769655
	 D(16,15,14,23)   =         1.456370	      83.443861
	 D(16,15,14,24)   =        -2.719634	    -155.823559
	 D(17,16,1,18)    =        -1.883867	    -107.937621
	 D(17,16,15,21)   =         0.012535	       0.718199
	 D(17,16,15,22)   =         2.108373	     120.800860
	 D(17,16,18,19)   =         0.036634	       2.098955
	 D(17,16,18,20)   =        -2.453433	    -140.571363
	 D(18,1,13,25)    =         2.684086	     153.786782
	 D(18,1,13,26)    =         0.595195	      34.102160
	 D(18,16,15,21)   =        -2.677717	    -153.421882
	 D(18,16,15,22)   =        -0.581879	     -33.339221
	 D(21,15,14,23)   =        -0.655153	     -37.537493
	 D(21,15,14,24)   =         1.452028	      83.195087
	 D(22,15,14,23)   =        -2.756477	    -157.934488
	 D(22,15,14,24)   =        -0.649296	     -37.201907
	 D(23,14,13,25)   =         0.668291	      38.290272
	 D(23,14,13,26)   =         2.764192	     158.376539
	 D(24,14,13,25)   =        -1.439029	     -82.450304
	 D(24,14,13,26)   =         0.656871	      37.635963
	 R(3,14)          =         7.127203	       3.771553

	Current energy   :      -464.8179043789

	Generating empirical Hessian (Schlegel '84) for each fragment.
	Taking RFO optimization step.
	Going to follow RFO solution 1.
	Using RFO vector 1.
	Norm of target step-size    0.29385
	Projected energy change by RFO approximation:        -0.0358042246

	Back-transformation to cartesian coordinates...
	Successfully converged to displaced geometry.

	--- Internal Coordinate Step in ANG or DEG, aJ/ANG or AJ/DEG ---
	 ---------------------------------------------------------------------------
	   Coordinate                Previous        Force       Change         New 
	   ----------                --------       ------       ------       ------
	    1 R(1,2)          =      1.485966    -0.019122    -0.002356     1.483610
	    2 R(1,13)         =      1.522769    -0.032191    -0.005680     1.517090
	    3 R(1,16)         =      1.522080    -0.030577    -0.005608     1.516471
	    4 R(1,18)         =      1.513014    -0.064333    -0.013750     1.499264
	    5 R(2,3)          =      1.344394     0.415456     0.044693     1.389087
	    6 R(2,7)          =      1.344295     0.413230     0.044260     1.388555
	    7 R(3,4)          =      1.342072     0.407917     0.043331     1.385403
	    8 R(3,12)         =      1.103310    -0.123049    -0.021355     1.081955
	    9 R(4,5)          =      1.341670     0.428049     0.045443     1.387113
	   10 R(4,11)         =      1.103926    -0.135459    -0.023551     1.080374
	   11 R(5,6)          =      1.341711     0.417403     0.044343     1.386054
	   12 R(5,10)         =      1.103869    -0.139203    -0.024198     1.079671
	   13 R(6,7)          =      1.342247     0.419998     0.044689     1.386937
	   14 R(6,9)          =      1.103941    -0.135657    -0.023587     1.080354
	   15 R(7,8)          =      1.103193    -0.128655    -0.022320     1.080873
	   16 R(13,14)        =      1.538028    -0.047373    -0.008477     1.529551
	   17 R(13,25)        =      1.115184    -0.152303    -0.027365     1.087820
	   18 R(13,26)        =      1.115330    -0.129752    -0.023323     1.092008
	   19 R(14,15)        =      1.538373    -0.046705    -0.009315     1.529058
	   20 R(14,23)        =      1.116514    -0.147200    -0.026550     1.089964
	   21 R(14,24)        =      1.115905    -0.148769    -0.026785     1.089120
	   22 R(15,16)        =      1.522031    -0.026046    -0.004763     1.517268
	   23 R(15,21)        =      1.115601    -0.154130    -0.027726     1.087875
	   24 R(15,22)        =      1.115470    -0.133554    -0.024016     1.091455
	   25 R(16,17)        =      1.088850    -0.067354    -0.011197     1.077654
	   26 R(16,18)        =      1.505927    -0.047672    -0.007168     1.498759
	   27 R(18,19)        =      1.086978    -0.054855    -0.009068     1.077911
	   28 R(18,20)        =      1.086634    -0.040668    -0.006716     1.079918
	   29 B(1,2,3)        =    120.160299    -0.000276    -0.508597   119.651702
	   30 B(1,2,7)        =    120.950530     0.000326     0.751941   121.702472
	   31 B(1,13,14)      =    104.948207    -0.000011    -0.063232   104.884974
	   32 B(1,13,25)      =    112.227590    -0.000189    -0.974341   111.253249
	   33 B(1,13,26)      =    109.532970     0.000174     0.890208   110.423178
	   34 B(1,16,15)      =    107.377697     0.000118     0.524061   107.901758
	   35 B(1,16,17)      =    121.678750    -0.000171    -1.256089   120.422661
	   36 B(1,16,18)      =     59.953961    -0.000095    -0.323535    59.630426
	   37 B(1,18,16)      =     60.552892     0.000097     0.219206    60.772098
	   38 B(1,18,19)      =    118.803448    -0.000165    -1.036259   117.767190
	   39 B(1,18,20)      =    117.823531     0.000017     0.215129   118.038659
	   40 B(2,1,13)       =    119.507362    -0.000090    -0.206429   119.300933
	   41 B(2,1,16)       =    116.730761     0.000248     1.595251   118.326012
	   42 B(2,1,18)       =    119.070878     0.000203     0.735463   119.806341
	   43 B(2,3,4)        =    120.704322     0.000051     0.158622   120.862944
	   44 B(2,3,12)       =    119.981496    -0.000154    -0.581640   119.399856
	   45 B(2,7,6)        =    120.636109     0.000057     0.186901   120.823010
	   46 B(2,7,8)        =    120.211078    -0.000208    -0.790485   119.420593
	   47 B(3,2,7)        =    118.887127    -0.000050    -0.247748   118.639379
	   48 B(3,4,5)        =    119.991675     0.000011     0.042838   120.034513
	   49 B(3,4,11)       =    120.036307    -0.000025    -0.089408   119.946899
	   50 B(4,3,12)       =    119.314054     0.000103     0.422162   119.736216
	   51 B(4,5,6)        =    119.726715    -0.000051    -0.127876   119.598840
	   52 B(4,5,10)       =    120.136139     0.000024     0.055404   120.191543
	   53 B(5,4,11)       =    119.972004     0.000014     0.046249   120.018254
	   54 B(5,6,7)        =    120.052591    -0.000018    -0.013408   120.039182
	   55 B(5,6,9)        =    119.930676     0.000020     0.044856   119.975532
	   56 B(6,5,10)       =    120.136833     0.000027     0.072745   120.209577
	   57 B(6,7,8)        =    119.151569     0.000151     0.604427   119.755996
	   58 B(7,6,9)        =    120.016412    -0.000001    -0.031313   119.985099
	   59 B(13,1,16)      =    107.028148    -0.000114    -0.465327   106.562821
	   60 B(13,1,18)      =    118.477850    -0.000155    -1.086456   117.391394
	   61 B(13,14,15)     =    103.902375     0.000141     0.410754   104.313129
	   62 B(13,14,23)     =    109.564068    -0.000062    -0.347104   109.216964
	   63 B(13,14,24)     =    112.678735    -0.000011     0.239391   112.918126
	   64 B(14,13,25)     =    111.847282     0.000159     0.716541   112.563823
	   65 B(14,13,26)     =    110.494038    -0.000097    -0.304908   110.189130
	   66 B(14,15,16)     =    104.670098    -0.000169    -0.590911   104.079187
	   67 B(14,15,21)     =    111.374556     0.000146     0.674077   112.048633
	   68 B(14,15,22)     =    110.913764    -0.000055    -0.416589   110.497175
	   69 B(15,14,23)     =    109.571731    -0.000045    -0.320945   109.250786
	   70 B(15,14,24)     =    112.658582    -0.000011     0.331457   112.990039
	   71 B(15,16,17)     =    117.156776     0.000122     1.096277   118.253054
	   72 B(15,16,18)     =    118.209116    -0.000038    -0.337688   117.871428
	   73 B(16,1,18)      =     59.493147    -0.000003     0.104328    59.597476
	   74 B(16,15,21)     =    111.803495    -0.000019    -0.097536   111.705959
	   75 B(16,15,22)     =    110.027783     0.000196     0.969900   110.997683
	   76 B(16,18,19)     =    116.518588     0.000031     0.583602   117.102190
	   77 B(16,18,20)     =    118.506957    -0.000128    -0.707996   117.798962
	   78 B(17,16,18)     =    119.328625    -0.000057    -0.569979   118.758646
	   79 B(19,18,20)     =    114.339595     0.000113     0.499027   114.838622
	   80 B(21,15,22)     =    108.061852    -0.000095    -0.508770   107.553082
	   81 B(23,14,24)     =    108.378423    -0.000012    -0.325450   108.052973
	   82 B(25,13,26)     =    107.791982    -0.000033    -0.239388   107.552595
	   83 D(1,2,3,4)      =    179.909589    -0.000007    -0.382087   179.527503
	   84 D(1,2,3,12)     =     -0.221554    -0.000011    -0.612688    -0.834242
	   85 D(1,2,7,6)      =   -179.899175     0.000006     0.288366  -179.610809
	   86 D(1,2,7,8)      =     -0.308370     0.000009     0.466440     0.158070
	   87 D(1,13,14,15)   =     33.374548     0.000024     0.527256    33.901804
	   88 D(1,13,14,23)   =    -83.639076     0.000025     0.843466   -82.795610
	   89 D(1,13,14,24)   =    155.620349     0.000040     1.340253   156.960602
	   90 D(1,16,15,14)   =     21.189108    -0.000003    -0.205726    20.983382
	   91 D(1,16,15,21)   =    141.886172     0.000011     0.187610   142.073782
	   92 D(1,16,15,22)   =    -98.031167     0.000011     0.136724   -97.894443
	   93 D(1,16,18,19)   =   -109.672055     0.000041     1.410912  -108.261142
	   94 D(1,16,18,20)   =    107.657628     0.000026     0.638748   108.296376
	   95 D(1,18,16,15)   =    -94.661664    -0.000028    -0.682384   -95.344047
	   96 D(1,18,16,17)   =    111.771010    -0.000050    -1.412609   110.358401
	   97 D(2,1,13,14)    =    115.050369     0.000032     1.350927   116.401297
	   98 D(2,1,13,25)    =     -6.630742     0.000013     1.067770    -5.562972
	   99 D(2,1,13,26)    =   -126.315365     0.000024     1.403903  -124.911462
	  100 D(2,1,16,15)    =   -137.418108     0.000005    -0.459325  -137.877433
	  101 D(2,1,16,17)    =      1.617120     0.000041     0.552197     2.169317
	  102 D(2,1,16,18)    =    109.554741     0.000030     0.226732   109.781474
	  103 D(2,1,18,16)    =   -105.650253    -0.000049    -1.680348  -107.330601
	  104 D(2,1,18,19)    =      0.294417    -0.000014    -0.444189    -0.149772
	  105 D(2,1,18,20)    =    145.580092    -0.000020    -0.818518   144.761574
	  106 D(2,3,4,5)      =     -0.161589     0.000002     0.098265    -0.063324
	  107 D(2,3,4,11)     =    179.880511    -0.000003    -0.153996   179.726514
	  108 D(2,7,6,5)      =      0.149602     0.000002     0.119694     0.269296
	  109 D(2,7,6,9)      =    179.943236     0.000003     0.168994   180.112231
	  110 D(3,2,1,13)     =    -66.027913    -0.000002    -0.235519   -66.263432
	  111 D(3,2,1,16)     =     65.407068    -0.000000     0.694751    66.101819
	  112 D(3,2,1,18)     =    133.670791     0.000036     1.712620   135.383411
	  113 D(3,2,7,6)      =     -0.418518    -0.000002    -0.119583    -0.538101
	  114 D(3,2,7,8)      =    179.172287     0.000001     0.058490   179.230778
	  115 D(3,4,5,6)      =     -0.114053    -0.000002    -0.099889    -0.213942
	  116 D(3,4,5,10)     =   -179.910849    -0.000004    -0.230479  -180.141328
	  117 D(4,3,2,7)      =      0.424721     0.000000     0.010589     0.435309
	  118 D(4,5,6,7)      =      0.119979    -0.000000    -0.007836     0.112143
	  119 D(4,5,6,9)      =   -179.673834    -0.000001    -0.056974  -179.730807
	  120 D(5,4,3,12)     =    179.968688     0.000006     0.330940   180.299628
	  121 D(5,6,7,8)      =   -179.445494    -0.000001    -0.053320  -179.498814
	  122 D(6,5,4,11)     =    179.843874     0.000003     0.152496   179.996370
	  123 D(7,2,1,13)     =    113.446166    -0.000009    -0.646073   112.800093
	  124 D(7,2,1,16)     =   -115.118853    -0.000008     0.284197  -114.834656
	  125 D(7,2,1,18)     =    -46.855130     0.000029     1.302066   -45.553064
	  126 D(7,2,3,12)     =   -179.706422    -0.000004    -0.220013  -179.926436
	  127 D(7,6,5,10)     =    179.916773     0.000002     0.122743   180.039515
	  128 D(8,7,6,9)      =      0.348141     0.000000    -0.004019     0.344121
	  129 D(9,6,5,10)     =      0.122960     0.000001     0.073605     0.196565
	  130 D(10,5,4,11)    =      0.047079     0.000000     0.021905     0.068984
	  131 D(11,4,3,12)    =      0.010787     0.000002     0.078679     0.089466
	  132 D(13,1,16,15)   =     -0.447959     0.000003     0.331343    -0.116616
	  133 D(13,1,16,17)   =    138.587269     0.000038     1.342865   139.930134
	  134 D(13,1,16,18)   =   -113.475109     0.000028     1.017400  -112.457710
	  135 D(13,1,18,16)   =     93.845334    -0.000014     0.066232    93.911565
	  136 D(13,1,18,19)   =   -160.209996     0.000020     1.302391  -158.907605
	  137 D(13,1,18,20)   =    -14.924321     0.000015     0.928062   -13.996259
	  138 D(13,14,15,16)  =    -33.564419    -0.000008    -0.093836   -33.658255
	  139 D(13,14,15,21)  =   -154.545773     0.000003     0.026337  -154.519437
	  140 D(13,14,15,22)  =     85.057233     0.000017     0.503703    85.560936
	  141 D(14,13,1,16)   =    -20.499691    -0.000005    -0.368686   -20.868377
	  142 D(14,13,1,18)   =    -84.532106     0.000010    -0.197686   -84.729792
	  143 D(14,15,16,17)  =   -119.978865    -0.000005    -0.088071  -120.066936
	  144 D(14,15,16,18)  =     85.881054    -0.000016    -0.377315    85.503739
	  145 D(15,14,13,25)  =    155.303895    -0.000010    -0.296779   155.007116
	  146 D(15,14,13,26)  =    -84.609838    -0.000011    -0.333355   -84.943193
	  147 D(15,16,1,18)   =    113.027150    -0.000025    -0.686057   112.341093
	  148 D(15,16,18,19)  =    155.666282     0.000013     0.728529   156.394810
	  149 D(15,16,18,20)  =     12.995964    -0.000002    -0.043635    12.952329
	  150 D(16,1,13,25)   =   -142.180802    -0.000024    -0.651843  -142.832646
	  151 D(16,1,13,26)   =     98.134576    -0.000013    -0.315711    97.818865
	  152 D(16,1,18,19)   =    105.944670     0.000034     1.236159   107.180830
	  153 D(16,1,18,20)   =   -108.769655     0.000029     0.861830  -107.907825
	  154 D(16,15,14,23)  =     83.443861    -0.000012    -0.428178    83.015682
	  155 D(16,15,14,24)  =   -155.823559    -0.000024    -0.846657  -156.670216
	  156 D(17,16,1,18)   =   -107.937621     0.000010     0.325465  -107.612156
	  157 D(17,16,15,21)  =      0.718199     0.000009     0.305265     1.023464
	  158 D(17,16,15,22)  =    120.800860     0.000009     0.254380   121.055240
	  159 D(17,16,18,19)  =      2.098955    -0.000010    -0.001697     2.097259
	  160 D(17,16,18,20)  =   -140.571363    -0.000025    -0.773861  -141.345223
	  161 D(18,1,13,25)   =    153.786782    -0.000008    -0.480844   153.305938
	  162 D(18,1,13,26)   =     34.102160     0.000002    -0.144711    33.957449
	  163 D(18,16,15,21)  =   -153.421882    -0.000002     0.016021  -153.405861
	  164 D(18,16,15,22)  =    -33.339221    -0.000002    -0.034865   -33.374085
	  165 D(21,15,14,23)  =    -37.537493    -0.000001    -0.308006   -37.845499
	  166 D(21,15,14,24)  =     83.195087    -0.000014    -0.726484    82.468602
	  167 D(22,15,14,23)  =   -157.934488     0.000013     0.169360  -157.765127
	  168 D(22,15,14,24)  =    -37.201907     0.000000    -0.249118   -37.451026
	  169 D(23,14,13,25)  =     38.290272    -0.000009     0.019430    38.309702
	  170 D(23,14,13,26)  =    158.376539    -0.000009    -0.017146   158.359393
	  171 D(24,14,13,25)  =    -82.450304     0.000006     0.516218   -81.934086
	  172 D(24,14,13,26)  =     37.635963     0.000006     0.479642    38.115605
	  173 R(3,14)         =      3.771553     0.014152     0.012307     3.783860
	 ---------------------------------------------------------------------------
	Successfully symmetrized geometry.

  ==> Convergence Check <==

  Measures of convergence in internal coordinates in au.
  Criteria marked as inactive (o), active & met (*), and active & unmet ( ).
  --------------------------------------------------------------------------------------------- ~
   Step     Total Energy     Delta E     MAX Force     RMS Force      MAX Disp      RMS Disp    ~
  --------------------------------------------------------------------------------------------- ~
    Convergence Criteria    1.00e-06 *    3.00e-04 *             o    1.20e-03 *             o  ~
  --------------------------------------------------------------------------------------------- ~
      1    -464.81790438   -4.65e+02      5.20e-02      1.05e-02 o    8.59e-02      2.23e-02 o  ~
  ---------------------------------------------------------------------------------------------

	Writing optimization data to binary file.
	Structure for next step:
	Cartesian Geometry (in Angstrom)
	    C     0.6957451964   0.5391054347  -0.4084980094
	    C    -0.6419120515   0.0399707996  -0.0052158191
	    C    -0.7469787743  -0.8966599169   1.0151987082
	    C    -1.9840091171  -1.3725212911   1.4185020987
	    C    -3.1389931676  -0.9132287934   0.8027546138
	    C    -3.0464876664   0.0256468213  -0.2126769833
	    C    -1.8047156107   0.4989846686  -0.6095986785
	    H    -1.7384146724   1.2371332383  -1.3963811239
	    H    -3.9424072866   0.3907912235  -0.6934706234
	    H    -4.1041985000  -1.2840525664   1.1134918676
	    H    -2.0482424537  -2.1042431349   2.2107560066
	    H     0.1511169319  -1.2618362739   1.4955085316
	    C     1.5031668197   1.3720384392   0.5691798295
	    C     2.7513180616   0.5369644349   0.8595169179
	    C     3.0392776698  -0.1831768963  -0.4582439219
	    C     1.6646815183  -0.4360899500  -1.0486865230
	    H     1.3693667276  -1.4555385001  -1.2353705364
	    C     1.0401014355   0.6562076724  -1.8629735345
	    H     0.2907534629   0.3659675200  -2.5813949525
	    H     1.6697931931   1.4776819305  -2.1710177766
	    H     3.5883588911  -1.1098451635  -0.3057071416
	    H     3.6374112994   0.4492939091  -1.1166434169
	    H     2.5191368695  -0.1998471593   1.6284271802
	    H     3.5908133063   1.1363891672   1.2089723619
	    H     0.9298978081   1.5919449119   1.4671530588
	    H     1.7843200599   2.3251107774   0.1163145240
			--------------------------
			 OPTKING Finished Execution 
			--------------------------

    Structure for next step:
    Molecular point group: c1
    Full point group: C1

    Geometry (in Angstrom), charge = 0, multiplicity = 1:

    C            0.697438504821     0.539244291210    -0.411342322547
    C           -0.640218748283     0.040109654246    -0.008060130747
    C           -0.745285471501    -0.896521066015     1.012354400595
    C           -1.982315819191    -1.372382442070     1.415657792718
    C           -3.137299874222    -0.913089942574     0.799910305346
    C           -3.044794372631     0.025785675862    -0.215521295697
    C           -1.803022312138     0.499123525010    -0.612442992520
    H           -1.736721373505     1.237272097601    -1.399225440960
    H           -3.940713996363     0.390930079482    -0.696314937715
    H           -4.102505210404    -1.283913717003     1.110647560403
    H           -2.046549156010    -2.104104288764     2.207911703743
    H            0.152810238186    -1.261697424447     1.492664225910
    C            1.504860131334     1.372177298991     0.566335520173
    C            2.753011378147     0.537103291453     0.856672609724
    C            3.040970987455    -0.183038042604    -0.461088235293
    C            1.666374830519    -0.435951097265    -1.051530838687
    H            1.371060038716    -1.455399651413    -1.238214852809
    C            1.041794745306     0.656346529372    -1.865817853415
    H            0.292446769703     0.366106375884    -2.584239274194
    H            1.671486505347     1.477820790728    -2.173862096697
    H            3.590052210941    -1.109706313472    -0.308551454390
    H            3.639104619371     0.449432765268    -1.119487732884
    H            2.520830185153    -0.199708305633     1.625582874963
    H            3.592506626093     1.136528026152     1.206128055020
    H            0.931591117441     1.592083772587     1.464308752964
    H            1.786013372607     2.325249640958     0.113470212825


Scratch directory: /local_scratch/pbs.4080462.pbs02/
gradient() will perform analytic gradient computation.

*** tstart() called on skystd28.palmetto.clemson.edu
*** at Thu Nov 25 23:51:27 2021

   => Loading Basis Set <=

    Name: CC-PVTZ
    Role: ORBITAL
    Keyword: BASIS
    atoms 1-7, 13-16, 18  entry C          line   186 file /home/maxbuskirk/.conda/envs/psifour/share/psi4/basis/cc-pvtz.gbs 
    atoms 8-12, 17, 19-26 entry H          line    23 file /home/maxbuskirk/.conda/envs/psifour/share/psi4/basis/cc-pvtz.gbs 


         ---------------------------------------------------------
                                   SCF
               by Justin Turney, Rob Parrish, Andy Simmonett
                          and Daniel G. A. Smith
                              RHF Reference
                        1 Threads,    500 MiB Core
         ---------------------------------------------------------

  ==> Geometry <==

    Molecular point group: c1
    Full point group: C1

    Geometry (in Angstrom), charge = 0, multiplicity = 1:

       Center              X                  Y                   Z               Mass       
    ------------   -----------------  -----------------  -----------------  -----------------
         C            0.697438504821     0.539244291210    -0.411342322547    12.000000000000
         C           -0.640218748283     0.040109654246    -0.008060130747    12.000000000000
         C           -0.745285471501    -0.896521066015     1.012354400595    12.000000000000
         C           -1.982315819191    -1.372382442070     1.415657792718    12.000000000000
         C           -3.137299874222    -0.913089942574     0.799910305346    12.000000000000
         C           -3.044794372631     0.025785675862    -0.215521295697    12.000000000000
         C           -1.803022312138     0.499123525010    -0.612442992520    12.000000000000
         H           -1.736721373505     1.237272097601    -1.399225440960     1.007825032230
         H           -3.940713996363     0.390930079482    -0.696314937715     1.007825032230
         H           -4.102505210404    -1.283913717003     1.110647560403     1.007825032230
         H           -2.046549156010    -2.104104288764     2.207911703743     1.007825032230
         H            0.152810238186    -1.261697424447     1.492664225910     1.007825032230
         C            1.504860131334     1.372177298991     0.566335520173    12.000000000000
         C            2.753011378147     0.537103291453     0.856672609724    12.000000000000
         C            3.040970987455    -0.183038042604    -0.461088235293    12.000000000000
         C            1.666374830519    -0.435951097265    -1.051530838687    12.000000000000
         H            1.371060038716    -1.455399651413    -1.238214852809     1.007825032230
         C            1.041794745306     0.656346529372    -1.865817853415    12.000000000000
         H            0.292446769703     0.366106375884    -2.584239274194     1.007825032230
         H            1.671486505347     1.477820790728    -2.173862096697     1.007825032230
         H            3.590052210941    -1.109706313472    -0.308551454390     1.007825032230
         H            3.639104619371     0.449432765268    -1.119487732884     1.007825032230
         H            2.520830185153    -0.199708305633     1.625582874963     1.007825032230
         H            3.592506626093     1.136528026152     1.206128055020     1.007825032230
         H            0.931591117441     1.592083772587     1.464308752964     1.007825032230
         H            1.786013372607     2.325249640958     0.113470212825     1.007825032230

  Running in c1 symmetry.

  Rotational constants: A =      0.07515  B =      0.02089  C =      0.01883 [cm^-1]
  Rotational constants: A =   2252.87175  B =    626.23225  C =    564.63311 [MHz]
  Nuclear repulsion =  674.603135893605327

  Charge       = 0
  Multiplicity = 1
  Electrons    = 86
  Nalpha       = 43
  Nbeta        = 43

  ==> Algorithm <==

  SCF Algorithm Type is DF.
  DIIS enabled.
  MOM disabled.
  Fractional occupation disabled.
  Guess Type is READ.
  Energy threshold   = 1.00e-10
  Density threshold  = 1.00e-10
  Integral threshold = 1.00e-12

  ==> Primary Basis <==

  Basis Set: CC-PVTZ
    Blend: CC-PVTZ
    Number of shells: 204
    Number of basis functions: 556
    Number of Cartesian functions: 630
    Spherical Harmonics?: true
    Max angular momentum: 3

   => Loading Basis Set <=

    Name: (CC-PVTZ AUX)
    Role: JKFIT
    Keyword: DF_BASIS_SCF
    atoms 1-7, 13-16, 18  entry C          line   125 file /home/maxbuskirk/.conda/envs/psifour/share/psi4/basis/cc-pvtz-jkfit.gbs 
    atoms 8-12, 17, 19-26 entry H          line    51 file /home/maxbuskirk/.conda/envs/psifour/share/psi4/basis/cc-pvtz-jkfit.gbs 

   => Loading Basis Set <=

    Name: CC-PVTZ
    Role: ORBITAL
    Keyword: BASIS
    atoms 1-7, 13-16, 18  entry C          line   186 file /home/maxbuskirk/.conda/envs/psifour/share/psi4/basis/cc-pvtz.gbs 
    atoms 8-12, 17, 19-26 entry H          line    23 file /home/maxbuskirk/.conda/envs/psifour/share/psi4/basis/cc-pvtz.gbs 

  Reading orbitals from file /local_scratch/pbs.4080462.pbs02/rH.mol.789194.180.npy, no projection.

  ==> Integral Setup <==

  ==> DiskDFJK: Density-Fitted J/K Matrices <==

    J tasked:                  Yes
    K tasked:                  Yes
    wK tasked:                  No
    OpenMP threads:              1
    Integrals threads:           1
    Memory [MiB]:              375
    Algorithm:                Disk
    Integral Cache:           NONE
    Schwarz Cutoff:          1E-12
    Fitting Condition:       1E-10

   => Auxiliary Basis Set <=

  Basis Set: (CC-PVTZ AUX)
    Blend: CC-PVTZ-JKFIT
    Number of shells: 440
    Number of basis functions: 1368
    Number of Cartesian functions: 1642
    Spherical Harmonics?: true
    Max angular momentum: 4

  Minimum eigenvalue in the overlap matrix is 2.9270309097E-05.
  Reciprocal condition number of the overlap matrix is 2.9871443055E-06.
    Using symmetric orthogonalization.

  ==> Pre-Iterations <==

  SCF Guess: Orbitals guess was supplied from a previous computation.

   -------------------------------------------------------
    Irrep   Nso     Nmo     Nalpha   Nbeta   Ndocc  Nsocc
   -------------------------------------------------------
     A        556     556      43      43      43       0
   -------------------------------------------------------
    Total     556     556      43      43      43       0
   -------------------------------------------------------

  ==> Iterations <==

                           Total Energy        Delta E     RMS |[F,P]|

   @DF-RHF iter   0:  -462.77389489811998   -4.62774e+02   5.38076e-04 
   @DF-RHF iter   1:  -462.68758169580519    8.63132e-02   6.41377e-05 DIIS
   @DF-RHF iter   2:  -462.68826285967424   -6.81164e-04   3.10570e-05 DIIS
   @DF-RHF iter   3:  -462.68839991059212   -1.37051e-04   7.12693e-06 DIIS
   @DF-RHF iter   4:  -462.68841477426224   -1.48637e-05   2.32619e-06 DIIS
   @DF-RHF iter   5:  -462.68841662448619   -1.85022e-06   8.15071e-07 DIIS
   @DF-RHF iter   6:  -462.68841686027264   -2.35786e-07   3.13695e-07 DIIS
   @DF-RHF iter   7:  -462.68841689996117   -3.96885e-08   1.01797e-07 DIIS
   @DF-RHF iter   8:  -462.68841690361580   -3.65463e-09   4.22062e-08 DIIS
   @DF-RHF iter   9:  -462.68841690445390   -8.38099e-10   1.46971e-08 DIIS
   @DF-RHF iter  10:  -462.68841690462631   -1.72406e-10   7.61271e-09 DIIS
   @DF-RHF iter  11:  -462.68841690467576   -4.94538e-11   3.39837e-09 DIIS
   @DF-RHF iter  12:  -462.68841690468423   -8.46967e-12   1.19670e-09 DIIS
   @DF-RHF iter  13:  -462.68841690468849   -4.26326e-12   4.17501e-10 DIIS
   @DF-RHF iter  14:  -462.68841690468861   -1.13687e-13   1.19698e-10 DIIS
   @DF-RHF iter  15:  -462.68841690468724    1.36424e-12   5.01522e-11 DIIS
  Energy and wave function converged.


  ==> Post-Iterations <==

    Orbital Energies [Eh]
    ---------------------

    Doubly Occupied:                                                      

       1A    -11.231501     2A    -11.228540     3A    -11.227764  
       4A    -11.227243     5A    -11.224307     6A    -11.223055  
       7A    -11.222454     8A    -11.220398     9A    -11.218819  
      10A    -11.216033    11A    -11.215000    12A    -11.214202  
      13A     -1.190159    14A     -1.143899    15A     -1.041854  
      16A     -1.016058    17A     -1.010302    18A     -0.956003  
      19A     -0.849283    20A     -0.826762    21A     -0.814115  
      22A     -0.776044    23A     -0.741494    24A     -0.703560  
      25A     -0.661333    26A     -0.639263    27A     -0.622190  
      28A     -0.613859    29A     -0.584247    30A     -0.578689  
      31A     -0.568608    32A     -0.567443    33A     -0.523468  
      34A     -0.502570    35A     -0.491351    36A     -0.480503  
      37A     -0.473131    38A     -0.469270    39A     -0.465074  
      40A     -0.411359    41A     -0.386935    42A     -0.333377  
      43A     -0.318294  

    Virtual:                                                              

      44A      0.128545    45A      0.133544    46A      0.141662  
      47A      0.155057    48A      0.158202    49A      0.169501  
      50A      0.182052    51A      0.183491    52A      0.193655  
      53A      0.207621    54A      0.210353    55A      0.215697  
      56A      0.221119    57A      0.236338    58A      0.261362  
      59A      0.270073    60A      0.282979    61A      0.287573  
      62A      0.312195    63A      0.316689    64A      0.337233  
      65A      0.348732    66A      0.359408    67A      0.376295  
      68A      0.389265    69A      0.398581    70A      0.410002  
      71A      0.414423    72A      0.427972    73A      0.432596  
      74A      0.438439    75A      0.445889    76A      0.449193  
      77A      0.459282    78A      0.480917    79A      0.483047  
      80A      0.498061    81A      0.506598    82A      0.514406  
      83A      0.531791    84A      0.536576    85A      0.539465  
      86A      0.559001    87A      0.563744    88A      0.570589  
      89A      0.582505    90A      0.588053    91A      0.589425  
      92A      0.600082    93A      0.602801    94A      0.607088  
      95A      0.611259    96A      0.615131    97A      0.624374  
      98A      0.626094    99A      0.632340   100A      0.638497  
     101A      0.641667   102A      0.648522   103A      0.656778  
     104A      0.659277   105A      0.672272   106A      0.672930  
     107A      0.677845   108A      0.685683   109A      0.695765  
     110A      0.703723   111A      0.711731   112A      0.729456  
     113A      0.731713   114A      0.735331   115A      0.743216  
     116A      0.746791   117A      0.767534   118A      0.775305  
     119A      0.786629   120A      0.810805   121A      0.830156  
     122A      0.851283   123A      0.862274   124A      0.867878  
     125A      0.873798   126A      0.884767   127A      0.914901  
     128A      0.933015   129A      0.935688   130A      0.953809  
     131A      0.960099   132A      0.979940   133A      0.989039  
     134A      0.996838   135A      1.005094   136A      1.021223  
     137A      1.030575   138A      1.037501   139A      1.043452  
     140A      1.050405   141A      1.054757   142A      1.069781  
     143A      1.083296   144A      1.089296   145A      1.100246  
     146A      1.127509   147A      1.133382   148A      1.133685  
     149A      1.161125   150A      1.167431   151A      1.178799  
     152A      1.182858   153A      1.195467   154A      1.207286  
     155A      1.212016   156A      1.220578   157A      1.226085  
     158A      1.235515   159A      1.248317   160A      1.263112  
     161A      1.269338   162A      1.280541   163A      1.285774  
     164A      1.297565   165A      1.309494   166A      1.319499  
     167A      1.330061   168A      1.339282   169A      1.348525  
     170A      1.356084   171A      1.366084   172A      1.371664  
     173A      1.386712   174A      1.393215   175A      1.405987  
[...]
	   92 D(1,16,15,22)   =    -99.493843     0.000000     0.010259   -99.483584
	   93 D(1,16,18,19)   =   -108.662721    -0.000000    -0.022849  -108.685571
	   94 D(1,16,18,20)   =    107.808153    -0.000000    -0.012714   107.795439
	   95 D(1,18,16,15)   =    -96.044688     0.000000     0.006221   -96.038466
	   96 D(1,18,16,17)   =    109.250156     0.000000    -0.009858   109.240297
	   97 D(2,1,13,14)    =    118.941789    -0.000000    -0.062425   118.879364
	   98 D(2,1,13,25)    =     -2.773200    -0.000000    -0.077425    -2.850625
	   99 D(2,1,13,26)    =   -121.896952    -0.000000    -0.075537  -121.972489
	  100 D(2,1,16,15)    =   -138.188747     0.000000     0.036750  -138.151997
	  101 D(2,1,16,17)    =      3.704762     0.000000     0.021065     3.725828
	  102 D(2,1,16,18)    =    110.033877     0.000000     0.023450   110.057327
	  103 D(2,1,18,16)    =   -110.684401    -0.000000     0.025336  -110.659065
	  104 D(2,1,18,19)    =     -3.715627     0.000000     0.022863    -3.692764
	  105 D(2,1,18,20)    =    141.495057     0.000000     0.020368   141.515425
	  106 D(2,3,4,5)      =      0.056457    -0.000000    -0.000858     0.055599
	  107 D(2,3,4,11)     =    179.732926    -0.000000     0.001094   179.734020
	  108 D(2,7,6,5)      =      0.333810     0.000000     0.002419     0.336229
	  109 D(2,7,6,9)      =    179.993723    -0.000000    -0.002836   179.990888
	  110 D(3,2,1,13)     =    -54.288488     0.000000     0.294372   -53.994116
	  111 D(3,2,1,16)     =     80.584727     0.000000     0.265324    80.850050
	  112 D(3,2,1,18)     =    151.782050     0.000000     0.260434   152.042484
	  113 D(3,2,7,6)      =     -0.488177    -0.000000    -0.006127    -0.494303
	  114 D(3,2,7,8)      =    178.798580    -0.000000    -0.017686   178.780894
	  115 D(3,4,5,6)      =     -0.218747     0.000000    -0.003014    -0.221761
	  116 D(3,4,5,10)     =    179.806446     0.000000     0.002352   179.808797
	  117 D(4,3,2,7)      =      0.293691     0.000000     0.005360     0.299051
	  118 D(4,5,6,7)      =      0.026409     0.000000     0.002257     0.028665
	  119 D(4,5,6,9)      =   -179.632628     0.000000     0.007531  -179.625097
	  120 D(5,4,3,12)     =   -179.321055    -0.000000    -0.002701  -179.323755
	  121 D(5,6,7,8)      =   -178.949560     0.000000     0.013933  -178.935627
	  122 D(6,5,4,11)     =   -179.894677    -0.000000    -0.004965  -179.899642
	  123 D(7,2,1,13)     =    124.943762     0.000000     0.322400   125.266162
	  124 D(7,2,1,16)     =   -100.183023     0.000000     0.293351   -99.889672
	  125 D(7,2,1,18)     =    -28.985699     0.000000     0.288461   -28.697238
	  126 D(7,2,3,12)     =    179.674390     0.000000     0.007124   179.681514
	  127 D(7,6,5,10)     =   -179.998791    -0.000000    -0.003111  -180.001903
	  128 D(8,7,6,9)      =      0.710354    -0.000000     0.008678     0.719032
	  129 D(9,6,5,10)     =      0.342172     0.000000     0.002163     0.344335
	  130 D(10,5,4,11)    =      0.130515    -0.000000     0.000401     0.130916
	  131 D(11,4,3,12)    =      0.355414    -0.000000    -0.000748     0.354666
	  132 D(13,1,16,15)   =      1.556447     0.000000     0.018994     1.575441
	  133 D(13,1,16,17)   =    143.449956    -0.000000     0.003310   143.453266
	  134 D(13,1,16,18)   =   -110.220929    -0.000000     0.005694  -110.215235
	  135 D(13,1,18,16)   =     94.512255    -0.000000    -0.011588    94.500667
	  136 D(13,1,18,19)   =   -158.518971     0.000000    -0.014061  -158.533032
	  137 D(13,1,18,20)   =    -13.308287    -0.000000    -0.016556   -13.324843
	  138 D(13,14,15,16)  =    -32.984393    -0.000000    -0.024383   -33.008776
	  139 D(13,14,15,21)  =   -154.014251    -0.000000    -0.025936  -154.040186
	  140 D(13,14,15,22)  =     86.034938    -0.000000    -0.028959    86.005979
	  141 D(14,13,1,16)   =    -22.061498    -0.000000    -0.035109   -22.096607
	  142 D(14,13,1,18)   =    -85.661608    -0.000000    -0.024039   -85.685647
	  143 D(14,15,16,17)  =   -122.007302     0.000000     0.022055  -121.985246
	  144 D(14,15,16,18)  =     83.986690     0.000000     0.004822    83.991512
	  145 D(15,14,13,25)  =    155.068702     0.000000     0.053352   155.122054
	  146 D(15,14,13,26)  =    -84.609862     0.000000     0.049917   -84.559945
	  147 D(15,16,1,18)   =    111.777376     0.000000     0.013300   111.790676
	  148 D(15,16,18,19)  =    155.292591    -0.000000    -0.016628   155.275963
	  149 D(15,16,18,20)  =     11.763465    -0.000000    -0.006493    11.756973
	  150 D(16,1,13,25)   =   -143.776488    -0.000000    -0.050108  -143.826596
	  151 D(16,1,13,26)   =     97.099761    -0.000000    -0.048221    97.051540
	  152 D(16,1,18,19)   =    106.968774     0.000000    -0.002473   106.966301
	  153 D(16,1,18,20)   =   -107.820542     0.000000    -0.004968  -107.825510
	  154 D(16,15,14,23)  =     82.749801    -0.000000    -0.025863    82.723938
	  155 D(16,15,14,24)  =   -157.306634    -0.000000    -0.020914  -157.327549
	  156 D(17,16,1,18)   =   -106.329114    -0.000000    -0.002385  -106.331499
	  157 D(17,16,15,21)  =     -0.777460     0.000000     0.026492    -0.750967
	  158 D(17,16,15,22)  =    119.022652     0.000000     0.028423   119.051075
	  159 D(17,16,18,19)  =      0.587434    -0.000000    -0.032707     0.554727
	  160 D(17,16,18,20)  =   -142.941692    -0.000000    -0.022572  -142.964264
	  161 D(18,1,13,25)   =    152.623403    -0.000000    -0.039038   152.584364
	  162 D(18,1,13,26)   =     33.499651    -0.000000    -0.037151    33.462500
	  163 D(18,16,15,21)  =   -154.783468     0.000000     0.009259  -154.774209
	  164 D(18,16,15,22)  =    -34.983356     0.000000     0.011189   -34.972167
	  165 D(21,15,14,23)  =    -38.280056    -0.000000    -0.027416   -38.307472
	  166 D(21,15,14,24)  =     81.663508    -0.000000    -0.022467    81.641042
	  167 D(22,15,14,23)  =   -158.230868    -0.000000    -0.030439  -158.261307
	  168 D(22,15,14,24)  =    -38.287304    -0.000000    -0.025490   -38.312793
	  169 D(23,14,13,25)  =     39.402120     0.000000     0.056824    39.458944
	  170 D(23,14,13,26)  =    159.723556     0.000000     0.053389   159.776945
	  171 D(24,14,13,25)  =    -80.555330     0.000000     0.050753   -80.504577
	  172 D(24,14,13,26)  =     39.766106     0.000000     0.047318    39.813425
	  173 R(3,14)         =      3.771857     0.000067    -0.001438     3.770419
	 ---------------------------------------------------------------------------
	Successfully symmetrized geometry.

  ==> Convergence Check <==

  Measures of convergence in internal coordinates in au.
  Criteria marked as inactive (o), active & met (*), and active & unmet ( ).
  ---------------------------------------------------------------------------------------------
   Step     Total Energy     Delta E     MAX Force     RMS Force      MAX Disp      RMS Disp   
  ---------------------------------------------------------------------------------------------
    Convergence Criteria    1.00e-06 *    3.00e-04 *             o    1.20e-03 *             o
  ---------------------------------------------------------------------------------------------
     14    -464.83826170   -5.68e-07 *    1.57e-05 *    3.02e-06 o    5.63e-03      1.02e-03 o  ~
  ---------------------------------------------------------------------------------------------


  **** Optimization is complete! (in 14 steps) ****

  ==> Optimization Summary <==

  Measures of convergence in internal coordinates in au.
  --------------------------------------------------------------------------------------------------------------- ~
   Step         Total Energy             Delta E       MAX Force       RMS Force        MAX Disp        RMS Disp  ~
  --------------------------------------------------------------------------------------------------------------- ~
      1    -464.817904378928   -464.817904378928      0.05195578      0.01050571      0.08587558      0.02234253  ~
      2    -464.837321649654     -0.019417270726      0.00363479      0.00084565      0.07434162      0.01618317  ~
      3    -464.838021527529     -0.000699877875      0.00104477      0.00027682      0.04654062      0.00950257  ~
      4    -464.838156611578     -0.000135084050      0.00034724      0.00010140      0.03369371      0.00665896  ~
      5    -464.838193957983     -0.000037346405      0.00018758      0.00005683      0.01276796      0.00237591  ~
      6    -464.838205347663     -0.000011389680      0.00012622      0.00003119      0.01312167      0.00237593  ~
      7    -464.838214114682     -0.000008767019      0.00012560      0.00002436      0.01318472      0.00237600  ~
      8    -464.838221939368     -0.000007824686      0.00012317      0.00002281      0.01328388      0.00237590  ~
      9    -464.838229280296     -0.000007340928      0.00010505      0.00001918      0.01339922      0.00237592  ~
     10    -464.838235942279     -0.000006661983      0.00008765      0.00001618      0.04028344      0.00712834  ~
     11    -464.838251278848     -0.000015336569      0.00010248      0.00002441      0.04049844      0.00712722  ~
     12    -464.838259846901     -0.000008568054      0.00010142      0.00002263      0.01013667      0.00178172  ~
     13    -464.838261134465     -0.000001287563      0.00005715      0.00000885      0.01000595      0.00178195  ~
     14    -464.838261702143     -0.000000567678      0.00001568      0.00000302      0.00562694      0.00102229  ~
  --------------------------------------------------------------------------------------------------------------- ~

	Writing optimization data to binary file.
	Final energy is   -464.8382617021431
	Final (previous) structure:
	Cartesian Geometry (in Angstrom)
	    C     0.6920095485   0.5055609129  -0.4071540866
	    C    -0.6419468118   0.0146613903  -0.0140885083
	    C    -0.7850501132  -0.6981379346   1.1761273579
	    C    -2.0230606642  -1.1673577406   1.5833210202
	    C    -3.1475022540  -0.9315272039   0.8016264860
	    C    -3.0199034600  -0.2211071521  -0.3825987750
	    C    -1.7763449337   0.2497507353  -0.7826303684
	    H    -1.6868150414   0.8156078833  -1.6952143333
	    H    -3.8866945066  -0.0283016969  -0.9921025549
	    H    -4.1105501931  -1.2973690312   1.1134475170
	    H    -2.1118338343  -1.7195806532   2.5038426434
	    H     0.0866818393  -0.8933568328   1.7811197190
	    C     1.4776757440   1.3658235232   0.5769321792
	    C     2.7524011235   0.5712176202   0.8566281486
	    C     3.0677396492  -0.1268989782  -0.4669942137
	    C     1.7069335807  -0.4068807896  -1.0697603645
	    H     1.4228166878  -1.4176699245  -1.3099721536
	    C     1.0502998898   0.6952188645  -1.8472742480
	    H     0.3278119309   0.4053765582  -2.5911400429
	    H     1.6527763540   1.5528452067  -2.1021372020
	    H     3.6396075697  -1.0375552318  -0.3222672446
	    H     3.6502820942   0.5247963906  -1.1159926475
	    H     2.5309154326  -0.1885263077   1.6035392161
	    H     3.5694092518   1.1800715230   1.2331681532
	    H     0.9013094248   1.5561345689   1.4765492400
	    H     1.7150089767   2.3297029985   0.1297928170
	Saving final (previous) structure.
	Cleaning optimization helper files.
			--------------------------
			 OPTKING Finished Execution 
			--------------------------

    Final optimized geometry and variables:
    Molecular point group: c1
    Full point group: C1

    Geometry (in Angstrom), charge = 0, multiplicity = 1:

    C            0.692009551241     0.505560914883    -0.407154088225
    C           -0.641946814275     0.014661390338    -0.014088508388
    C           -0.785050116290    -0.698137937325     1.176127362559
    C           -2.023060672166    -1.167357745222     1.583321026470
    C           -3.147502266391    -0.931527207526     0.801626489141
    C           -3.019903471897    -0.221107152927    -0.382598776535
    C           -1.776344940713     0.249750736255    -0.782630371500
    H           -1.686815048045     0.815607886493    -1.695214339915
    H           -3.886694521878    -0.028301696969    -0.992102558830
    H           -4.110550209304    -1.297369036288     1.113447521418
    H           -2.111833842632    -1.719580659972     2.503842653221
    H            0.086681839678    -0.893356836350     1.781119725978
    C            1.477675749783     1.365823528544     0.576932181447
    C            2.752401134309     0.571217622418     0.856628151935
    C            3.067739661235    -0.126898978706    -0.466994215584
    C            1.706933587446    -0.406880791232    -1.069760368671
    H            1.422816693432    -1.417669930121    -1.309972158727
    C            1.050299893883     0.695218867281    -1.847274255217
    H            0.327811932237     0.405376559827    -2.591140053077
    H            1.652776360494     1.552845212787    -2.102137210286
    H            3.639607583961    -1.037555235836    -0.322267245873
    H            3.650282108561     0.524796392712    -1.115992651848
    H            2.530915442537    -0.188526308432     1.603539222400
    H            3.569409265829     1.180071527666     1.233168158048
    H            0.901309428360     1.556134575049     1.476549245831
    H            1.715008983488     2.329703007652     0.129792817527

	Removing binary optimization data file.
	Cleaning optimization helper files.


Properties will be evaluated at   0.000000,   0.000000,   0.000000 [a0]
OEProp: No title given, name of density matrix used for the following properties is 'DF-MP2 relaxed density'
  Mulliken Charges: (a.u.)
   Center  Symbol    Alpha    Beta     Spin     Total
       1     C     2.97832  2.97832  0.00000  0.04337
       2     C     2.93707  2.93707  0.00000  0.12587
       3     C     3.08214  3.08214  0.00000 -0.16429
       4     C     3.07600  3.07600  0.00000 -0.15200
       5     C     3.08602  3.08602  0.00000 -0.17204
       6     C     3.07520  3.07520  0.00000 -0.15040
       7     C     3.08141  3.08141  0.00000 -0.16283
       8     H     0.42334  0.42334  0.00000  0.15331
       9     H     0.42488  0.42488  0.00000  0.15024
      10     H     0.42421  0.42421  0.00000  0.15158
      11     H     0.42513  0.42513  0.00000  0.14974
      12     H     0.42287  0.42287  0.00000  0.15425
      13     C     3.14681  3.14681  0.00000 -0.29361
      14     C     3.11732  3.11732  0.00000 -0.23464
      15     C     3.13799  3.13799  0.00000 -0.27597
      16     C     3.04823  3.04823  0.00000 -0.09646
      17     H     0.42399  0.42399  0.00000  0.15202
      18     C     3.21344  3.21344  0.00000 -0.42688
      19     H     0.42786  0.42786  0.00000  0.14428
      20     H     0.43528  0.43528  0.00000  0.12944
      21     H     0.43285  0.43285  0.00000  0.13430
      22     H     0.43750  0.43750  0.00000  0.12500
      23     H     0.44090  0.44090  0.00000  0.11820
      24     H     0.43418  0.43418  0.00000  0.13164
      25     H     0.43098  0.43098  0.00000  0.13803
      26     H     0.43607  0.43607  0.00000  0.12785

   Total alpha = 43.00000, Total beta = 43.00000, Total charge =  0.00000

    Molecular point group: c1
    Full point group: C1

    Geometry (in Angstrom), charge = 0, multiplicity = 1:

       Center              X                  Y                   Z               Mass       
    ------------   -----------------  -----------------  -----------------  -----------------
         C            0.692009551241     0.505560914883    -0.407154088225    12.000000000000
         C           -0.641946814275     0.014661390338    -0.014088508388    12.000000000000
         C           -0.785050116290    -0.698137937325     1.176127362559    12.000000000000
         C           -2.023060672166    -1.167357745222     1.583321026470    12.000000000000
         C           -3.147502266391    -0.931527207526     0.801626489141    12.000000000000
         C           -3.019903471897    -0.221107152927    -0.382598776535    12.000000000000
         C           -1.776344940713     0.249750736255    -0.782630371500    12.000000000000
         H           -1.686815048045     0.815607886493    -1.695214339915     1.007825032230
         H           -3.886694521878    -0.028301696969    -0.992102558830     1.007825032230
         H           -4.110550209304    -1.297369036288     1.113447521418     1.007825032230
         H           -2.111833842632    -1.719580659972     2.503842653221     1.007825032230
         H            0.086681839678    -0.893356836350     1.781119725978     1.007825032230
         C            1.477675749783     1.365823528544     0.576932181447    12.000000000000
         C            2.752401134309     0.571217622418     0.856628151935    12.000000000000
         C            3.067739661235    -0.126898978706    -0.466994215584    12.000000000000
         C            1.706933587446    -0.406880791232    -1.069760368671    12.000000000000
         H            1.422816693432    -1.417669930121    -1.309972158727     1.007825032230
         C            1.050299893883     0.695218867281    -1.847274255217    12.000000000000
         H            0.327811932237     0.405376559827    -2.591140053077     1.007825032230
         H            1.652776360494     1.552845212787    -2.102137210286     1.007825032230
         H            3.639607583961    -1.037555235836    -0.322267245873     1.007825032230
         H            3.650282108561     0.524796392712    -1.115992651848     1.007825032230
         H            2.530915442537    -0.188526308432     1.603539222400     1.007825032230
         H            3.569409265829     1.180071527666     1.233168158048     1.007825032230
         H            0.901309428360     1.556134575049     1.476549245831     1.007825032230
         H            1.715008983488     2.329703007652     0.129792817527     1.007825032230



  Variable Map:
  ----------------------------------------------------------------------------
  "CURRENT CORRELATION ENERGY"           =>      -2.149588851624
  "CURRENT DIPOLE X"                     =>       0.386009834369
  "CURRENT DIPOLE Y"                     =>      -0.010766270704
  "CURRENT DIPOLE Z"                     =>       0.024175645758
  "CURRENT ENERGY"                       =>    -464.838261702143
  "CURRENT REFERENCE ENERGY"             =>    -462.688672850519
  "CUSTOM SCS-MP2 CORRELATION ENERGY"    =>      -2.132903741374
  "CUSTOM SCS-MP2 TOTAL ENERGY"          =>    -464.821576591894
  "HF TOTAL ENERGY"                      =>    -462.688672850519
  "MP2 CORRELATION ENERGY"               =>      -2.149588851624
  "MP2 DOUBLES ENERGY"                   =>      -2.149588851624
  "MP2 OPPOSITE-SPIN CORRELATION ENERGY" =>      -1.634277835577
  "MP2 SAME-SPIN CORRELATION ENERGY"     =>      -0.515311016047
  "MP2 SINGLES ENERGY"                   =>      -0.000000000000
  "MP2 TOTAL ENERGY"                     =>    -464.838261702143
  "NUCLEAR REPULSION ENERGY"             =>     674.182409748184
  "ONE-ELECTRON ENERGY"                  =>   -1962.846598549292
  "OPTIMIZATION ITERATIONS"              =>      14.000000000000
  "PCM POLARIZATION ENERGY"              =>       0.000000000000
  "PE ENERGY"                            =>       0.000000000000
  "SCF DIPOLE X"                         =>       0.386009834369
  "SCF DIPOLE Y"                         =>      -0.010766270704
  "SCF DIPOLE Z"                         =>       0.024175645758
  "SCF ITERATION ENERGY"                 =>    -462.688672850519
  "SCF ITERATIONS"                       =>      13.000000000000
  "SCF TOTAL ENERGY"                     =>    -462.688672850519
  "SCS-MP2 CORRELATION ENERGY"           =>      -2.132903741374
  "SCS-MP2 TOTAL ENERGY"                 =>    -464.821576591894
  "TWO-ELECTRON ENERGY"                  =>     825.975515950589



    Psi4 stopped on: Friday, 26 November 2021 01:32AM
    Psi4 wall time for execution: 1:49:13.43

*** Psi4 exiting successfully. Buy a developer a beer!
